 Gaussian 16, Revision A.03,
 Gaussian 16:  ES64L-G16RevA.03 25-Dec-2016

 ------------------------------------------------------------------
 # opt=(calcfc,tight) freq cam-b3lyp/gen nosymm pseudo=read scf=xqc
 ------------------------------------------------------------------

 ------------------
 CO2_opt_freq_6_31G
 ------------------
 Symbolic Z-matrix:
 Charge =  0 Multiplicity = 1

 SCF Done:  E(RCAM-B3LYP) =  -188.509362704     A.U. after   10 cycles
 Optimization completed.
    -- Stationary point found.
 Normal termination of Gaussian 16 at Thu Aug 22 12:28:48 2019.

 ----------------------------------------------------------------------
 #N Geom=AllCheck Guess=TCheck SCRF=Check GenChk RCAM-B3LYP/ChkBas Freq
 ----------------------------------------------------------------------

 Structure from the checkpoint file:  "CO2_opt_freq_6_31G.chk"
 ------------------
 CO2_opt_freq_6_31G
 ------------------
 Charge =  0 Multiplicity = 1

                          Input orientation:
 ---------------------------------------------------------------------
 Center     Atomic      Atomic             Coordinates (Angstroms)
 Number     Number       Type             X           Y           Z
 ---------------------------------------------------------------------
      1          6           0        0.000000    0.000000    0.000000
      2          8           0        0.000000    0.000000    1.164609
      3          8           0        0.000000    0.000000   -1.164609
 ---------------------------------------------------------------------

 SCF Done:  E(RCAM-B3LYP) =  -188.509362704     A.U. after    1 cycles

 Alpha  occ. eigenvalues --  -19.30538 -19.30533 -10.46078  -1.24398  -1.20024
 Alpha  occ. eigenvalues --   -0.63173  -0.58749  -0.58749  -0.58604  -0.43281
 Alpha  occ. eigenvalues --   -0.43281
 Alpha virt. eigenvalues --    0.09160   0.09160   0.14324   0.42267   0.52629
 Alpha virt. eigenvalues --    0.52629   0.65351   0.80690   0.88652   0.94130
 Alpha virt. eigenvalues --    0.94130   1.10938   1.10938   1.12701   1.46076

 Mulliken charges:
               1
     1  C    0.628373
     2  O   -0.314186
     3  O   -0.314186
 Sum of Mulliken charges =  -0.00000

 Dipole moment (field-independent basis, Debye):
    X=              0.0000    Y=             -0.0000    Z=             -0.0000  Tot=              0.0000
 Quadrupole moment (field-independent basis, Debye-Ang):
   XX=            -14.4332   YY=            -14.4332   ZZ=            -18.9870
   XY=              0.0000   XZ=             -0.0000   YZ=             -0.0000

  Exact polarizability:   7.567  -0.000   7.567   0.000   0.000  21.816
 Approx polarizability:   8.573   0.000   8.573   0.000   0.000  35.644

                      1                      2                      3
                      A                      A                      A
 Frequencies --    659.7499               659.7499              1399.6703
 Red. masses --     12.8774                12.8774                15.9949
 Frc consts  --      3.3024                 3.3024                18.4622
 IR Inten    --     35.0558                35.0558                 0.0000

                      4
                      A
 Frequencies --   2471.8784
 Red. masses --     12.8774
 Frc consts  --     46.3587
 IR Inten    --    602.0557

 - Thermochemistry -
 -------------------
 Temperature   298.150 Kelvin.  Pressure   1.00000 Atm.
 Atom     1 has atomic number  6 and mass  12.00000

 Molecular mass:    43.98983 amu.
 Principal axes and moments of inertia in atomic units:
                           1         2         3
     Eigenvalues --     0.00000 154.94228 154.94228
           X            0.00000  -0.00000   1.00000
           Y            0.00000   1.00000   0.00000
           Z            1.00000   0.00000   0.00000
 This molecule is a prolate symmetric top.
 Rotational symmetry number  2.
 Rotational temperature (Kelvin)      0.55901
 Rotational constant (GHZ):          11.647829
 Zero-point vibrational energy      31049.4 (Joules/Mol)
                                    7.42098 (Kcal/Mol)
 Vibrational temperatures:    949.23   949.23  2013.81  3556.48
          (Kelvin)

 Zero-point correction=                           0.011826 (Hartree/Particle)
 Thermal correction to Energy=                    0.014454
 Thermal correction to Enthalpy=                  0.015398
 Thermal correction to Gibbs Free Energy=        -0.008877
 Sum of electronic and zero-point Energies=           -188.497537
 Sum of electronic and thermal Energies=              -188.494909
 Sum of electronic and thermal Enthalpies=            -188.493965
 Sum of electronic and thermal Free Energies=         -188.518240

                     E (Thermal)             CV                S
                      KCal/Mol        Cal/Mol-Kelvin    Cal/Mol-Kelvin
 Total                    9.070              6.892             51.091
 Electronic               0.000              0.000              0.000
 Translational            0.889              2.981             37.270
 Rotational               0.592              1.987             13.088
 Vibrational              7.589              1.924              0.733

 Optimization completed.
    -- Stationary point found.
 Normal termination of Gaussian 16 at Thu Aug 22 12:28:59 2019.
