 Gaussian 16, Revision A.03,
 Gaussian 16:  ES64L-G16RevA.03 25-Dec-2016

 ----------------------------------------------------------------------
 # opt=(calcall,tight,cartesian) freq cam-b3lyp/gen nosymm scf=(qc,maxc
 ycle=1024,vshift=100) pseudo=read
 ----------------------------------------------------------------------

 -------------------
 Zn_cat_opt_freq_sin
 -------------------
 Symbolic Z-matrix:
 Charge =  0 Multiplicity = 1

 SCF Done:  E(RCAM-B3LYP) =  -3507.23256951     a.u. after    8 cycles
 Optimization completed.
    -- Stationary point found.
 Normal termination of Gaussian 16 at Fri Oct  4 11:15:57 2019.

 ----------------------------------------------------------------------
 #N Geom=AllCheck Guess=TCheck SCRF=Check GenChk RCAM-B3LYP/ChkBas Freq
 ----------------------------------------------------------------------

 Structure from the checkpoint file:  "Zn_cat_opt_freq_sin.chk"
 -------------------
 Zn_cat_opt_freq_sin
 -------------------
 Charge =  0 Multiplicity = 1

                          Input orientation:
 ---------------------------------------------------------------------
 Center     Atomic      Atomic             Coordinates (Angstroms)
 Number     Number       Type             X           Y           Z
 ---------------------------------------------------------------------
      1          3           0       -0.656174   -5.038394   -3.457440
      2          7           0       -0.282792   -3.675582   -2.194684
      3          6           0       -1.095303   -3.957877   -1.134074
      4         17           0       -2.025836   -5.418073   -1.177294
      5          7           0        2.328228    2.599049   -2.419433
      6          6           0        3.249122    1.617260   -2.254632
      7         17           0        4.830753    1.702467   -2.934139
      8          7           0       -3.327483    2.075083    1.065729
      9          6           0       -3.878272    1.385404    0.039514
     10         17           0       -5.541163    1.522415   -0.391530
     11         30           0       -0.043067   -0.036009   -0.373400
     12          7           0       -0.123743   -2.037791   -0.691204
     13          6           0       -1.010907   -2.962151   -0.208135
     14         17           0       -1.807770   -2.793913    1.291669
     15          7           0       -1.743289    0.808300    0.100083
     16          6           0       -2.926920    0.607730   -0.560102
     17         17           0       -3.040922   -0.440812   -1.926988
     18          7           0        1.444994    0.950816   -1.164405
     19          6           0        2.728566    0.605127   -1.494711
     20         17           0        3.442704   -0.871680   -0.963961
     21          6           0        0.280937   -2.512330   -1.876699
     22          1           0        0.996911   -1.996959   -2.501287
     23          6           0       -2.064453    1.707465    1.068458
     24          1           0       -1.331720    2.081106    1.772193
     25          6           0        1.276242    2.168288   -1.758400
     26          1           0        0.345309    2.715457   -1.679943
 ---------------------------------------------------------------------

 SCF Done:  E(RCAM-B3LYP) =  -3507.23256951     a.u. after    1 cycles

 Alpha  occ. eigenvalues -- -101.67527-101.64119-101.61292-101.61157-101.58406
 Alpha  occ. eigenvalues -- -101.58157 -14.46787 -14.46347 -14.42429 -14.42128
 Alpha  occ. eigenvalues --  -14.37528 -14.37228 -10.37776 -10.37668 -10.36116
 Alpha  occ. eigenvalues --  -10.32169 -10.31976 -10.30958 -10.30660 -10.29556
 Alpha  occ. eigenvalues --  -10.29360  -9.60740  -9.57316  -9.54485  -9.54349
 Alpha  occ. eigenvalues --   -9.51672  -9.51424  -7.37144  -7.36242  -7.36121
 Alpha  occ. eigenvalues --   -7.33801  -7.32723  -7.32711  -7.30913  -7.30783
 Alpha  occ. eigenvalues --   -7.29941  -7.29905  -7.29788  -7.29778  -7.28115
 Alpha  occ. eigenvalues --   -7.27868  -7.27103  -7.27083  -7.26853  -7.26836
 Alpha  occ. eigenvalues --   -2.17614  -1.15367  -1.08817  -1.08646  -1.02640
 Alpha  occ. eigenvalues --   -1.00187  -0.96000  -0.95922  -0.95399  -0.94207
 Alpha  occ. eigenvalues --   -0.94009  -0.89269  -0.89046  -0.84139  -0.77873
 Alpha  occ. eigenvalues --   -0.77649  -0.73289  -0.72524  -0.72409  -0.71931
 Alpha  occ. eigenvalues --   -0.71819  -0.70717  -0.68896  -0.64934  -0.64821
 Alpha  occ. eigenvalues --   -0.63160  -0.62435  -0.62170  -0.57677  -0.57062
 Alpha  occ. eigenvalues --   -0.56582  -0.55164  -0.53520  -0.50921  -0.50730
 Alpha  occ. eigenvalues --   -0.49924  -0.49256  -0.49162  -0.47494  -0.46963
 Alpha  occ. eigenvalues --   -0.46840  -0.46548  -0.45697  -0.44941  -0.43054
 Alpha  occ. eigenvalues --   -0.42847  -0.41264  -0.41065  -0.41009  -0.39656
 Alpha  occ. eigenvalues --   -0.39502  -0.39334  -0.39055  -0.37718  -0.35878
 Alpha  occ. eigenvalues --   -0.35578  -0.32482  -0.32145  -0.31904  -0.31595
 Alpha  occ. eigenvalues --   -0.31204  -0.25881  -0.25651
 Alpha virt. eigenvalues --   -0.06902  -0.01318  -0.00469   0.01155   0.03311
 Alpha virt. eigenvalues --    0.03473   0.03862   0.05304   0.06963   0.07647
 Alpha virt. eigenvalues --    0.08529   0.09104   0.09294   0.09515   0.09996

 Mulliken charges:
               1
     1  Li   0.623473
     2  N   -0.495387
     3  C    0.063948
     4  Cl   0.070364
     5  N   -0.357488
     6  C    0.013801
     7  Cl  -0.009618
     8  N   -0.355644
     9  C    0.017371
    10  Cl  -0.009637
    11  Zn   1.059556
    12  N   -0.572709
    13  C    0.068549
    14  Cl   0.073976
    15  N   -0.620579
    16  C    0.048513
    17  Cl  -0.017371
    18  N   -0.628495
    19  C    0.036831
    20  Cl  -0.011028
    21  C    0.236805
    22  H    0.163178
    23  C    0.175572
    24  H    0.112302
    25  C    0.185735
    26  H    0.127983
 Sum of Mulliken charges =  -0.00000

 Dipole moment (field-independent basis, Debye):
    X=              0.0917    Y=            -16.7206    Z=             -5.6935  Tot=             17.6636
 Quadrupole moment (field-independent basis, Debye-Ang):
   XX=           -220.4258   YY=           -122.1270   ZZ=           -144.4572
   XY=              8.8849   XZ=             20.7870   YZ=             57.6258

  Exact polarizability: 226.897   5.921 201.873 -30.198  13.811 166.015
 Approx polarizability: 252.608   1.895 234.863 -27.342  17.851 220.027

                      1                      2                      3
                      A                      A                      A
 Frequencies --      9.4600                17.4872                20.4993
 Red. masses --     26.2871                25.5141                25.4841
 Frc consts  --      0.0014                 0.0046                 0.0063
 IR Inten    --      0.5095                 0.2185                 0.4119

                      4                      5                      6
                      A                      A                      A
 Frequencies --     41.5877                45.3838                49.2766
 Red. masses --     25.3640                22.0713                23.6130
 Frc consts  --      0.0258                 0.0268                 0.0338
 IR Inten    --      0.1976                 0.4988                 0.5364

                      7                      8                      9
                      A                      A                      A
 Frequencies --     66.5917                73.4708                79.1517
 Red. masses --     27.0278                28.2338                27.5099
 Frc consts  --      0.0706                 0.0898                 0.1015
 IR Inten    --      0.5549                 0.2330                 0.0175

                     10                     11                     12
                      A                      A                      A
 Frequencies --    118.0132               150.3652               151.6477
 Red. masses --     46.6510                32.1519                29.7447
 Frc consts  --      0.3828                 0.4283                 0.4030
 IR Inten    --      6.5955                 0.7557                 1.1364

                     13                     14                     15
                      A                      A                      A
 Frequencies --    152.3849               156.5772               170.4092
 Red. masses --     32.4634                15.5646                11.4714
 Frc consts  --      0.4441                 0.2248                 0.1963
 IR Inten    --      0.2171                 1.5827                 4.2782

                     16                     17                     18
                      A                      A                      A
 Frequencies --    179.3058               233.5455               241.0038
 Red. masses --     12.4709                32.4516                19.0992
 Frc consts  --      0.2362                 1.0429                 0.6536
 IR Inten    --      8.4601                21.5114                22.0849

                     19                     20                     21
                      A                      A                      A
 Frequencies --    265.4726               268.5522               269.9797
 Red. masses --     13.6683                 8.4513                11.1086
 Frc consts  --      0.5676                 0.3591                 0.4771
 IR Inten    --      3.5076                 2.8562                 5.4339

                     22                     23                     24
                      A                      A                      A
 Frequencies --    271.6389               275.0271               282.9307
 Red. masses --      7.3034                13.2854                10.7384
 Frc consts  --      0.3175                 0.5921                 0.5065
 IR Inten    --      0.4875                14.4215                 7.4320

                     25                     26                     27
                      A                      A                      A
 Frequencies --    336.0555               340.8346               344.9759
 Red. masses --     26.5775                26.8562                29.5406
 Frc consts  --      1.7684                 1.8382                 2.0713
 IR Inten    --      0.6237                 5.0641                19.3899

                     28                     29                     30
                      A                      A                      A
 Frequencies --    519.4443               524.6200               528.9610
 Red. masses --     11.7289                11.4754                11.4230
 Frc consts  --      1.8646                 1.8608                 1.8831
 IR Inten    --      2.3887                 0.6282                 1.1896

                     31                     32                     33
                      A                      A                      A
 Frequencies --    569.7150               575.2059               579.1134
 Red. masses --      5.6582                 6.4029                 6.4631
 Frc consts  --      1.0820                 1.2482                 1.2771
 IR Inten    --      4.0802                 5.6777                 4.9346

                     34                     35                     36
                      A                      A                      A
 Frequencies --    669.1556               670.5226               683.8817
 Red. masses --      6.2373                 6.4902                 8.3486
 Frc consts  --      1.6455                 1.7192                 2.3005
 IR Inten    --      5.3326                 3.6089                 6.4049

                     37                     38                     39
                      A                      A                      A
 Frequencies --    714.3915               716.7566               722.7821
 Red. masses --     10.5045                 9.1220                11.0534
 Frc consts  --      3.1586                 2.7611                 3.4022
 IR Inten    --      7.3965                 3.4857                 3.7361

                     40                     41                     42
                      A                      A                      A
 Frequencies --    836.9573               850.2342               869.9252
 Red. masses --      1.3519                 1.3366                 1.3595
 Frc consts  --      0.5580                 0.5693                 0.6062
 IR Inten    --      9.8101                 8.9318                 7.2953

                     43                     44                     45
                      A                      A                      A
 Frequencies --    947.6373               948.7938               953.5708
 Red. masses --      7.2127                 7.2362                 7.5987
 Frc consts  --      3.8162                 3.8380                 4.0710
 IR Inten    --     28.2521                17.7525                25.1583

                     46                     47                     48
                      A                      A                      A
 Frequencies --   1099.9998              1103.5801              1105.6712
 Red. masses --      4.5750                 5.1544                 5.0430
 Frc consts  --      3.2616                 3.6986                 3.6324
 IR Inten    --    116.3687               114.9134               178.1182

                     49                     50                     51
                      A                      A                      A
 Frequencies --   1204.2063              1229.4340              1231.3846
 Red. masses --      5.6088                 3.1913                 3.4737
 Frc consts  --      4.7921                 2.8420                 3.1034
 IR Inten    --     26.8138                32.2001                50.6068

                     52                     53                     54
                      A                      A                      A
 Frequencies --   1244.2461              1256.0366              1270.1035
 Red. masses --      3.3643                 2.7373                 2.3083
 Frc consts  --      3.0687                 2.5443                 2.1939
 IR Inten    --    129.9756                89.6588                13.1810

                     55                     56                     57
                      A                      A                      A
 Frequencies --   1337.5165              1342.3865              1358.1371
 Red. masses --     12.2382                10.7827                 8.0075
 Frc consts  --     12.8993                11.4481                 8.7023
 IR Inten    --     26.7350                29.8375                43.5382

                     58                     59                     60
                      A                      A                      A
 Frequencies --   1471.6187              1477.7743              1503.1405
 Red. masses --      2.7061                 2.8950                 3.2300
 Frc consts  --      3.4529                 3.7250                 4.2998
 IR Inten    --    107.1495                54.7726                48.7796

                     61                     62                     63
                      A                      A                      A
 Frequencies --   1573.1889              1578.2555              1609.4204
 Red. masses --     11.9906                11.9503                11.9367
 Frc consts  --     17.4845                17.5382                18.2169
 IR Inten    --     34.6353                31.1373                49.5930

                     64                     65                     66
                      A                      A                      A
 Frequencies --   3262.8071              3264.9754              3293.0146
 Red. masses --      1.0959                 1.0962                 1.0985
 Frc consts  --      6.8740                 6.8848                 7.0187
 IR Inten    --      4.6673                 1.7595                 2.0713

 - Thermochemistry -
 -------------------
 Temperature   298.150 Kelvin.  Pressure   1.00000 Atm.
 Atom     1 has atomic number  3 and mass   7.01600

 Molecular mass:   475.80019 amu.
 Principal axes and moments of inertia in atomic units:
                           1         2         3
     Eigenvalues --  ******************************
           X            0.92812  -0.27508   0.25083
           Y            0.29183   0.95595  -0.03144
           Z           -0.23114   0.10238   0.96752
 This molecule is an asymmetric top.
 Rotational symmetry number  1.
 Warning -- assumption of classical behavior for rotation
           may cause significant error
 Rotational temperatures (Kelvin)      0.00856     0.00538     0.00378
 Rotational constants (GHZ):           0.17835     0.11214     0.07873
 Zero-point vibrational energy     306903.1 (Joules/Mol)
                                   73.35161 (Kcal/Mol)
 Warning -- explicit consideration of  33 degrees of freedom as
           vibrations may cause significant error
 Vibrational temperatures:     13.61    25.16    29.49    59.84    65.30
          (Kelvin)             70.90    95.81   105.71   113.88   169.79
                              216.34   218.19   219.25   225.28   245.18
                              257.98   336.02   346.75   381.96   386.39
                              388.44   390.83   395.70   407.07   483.51
                              490.38   496.34   747.36   754.81   761.06
                              819.69   827.59   833.22   962.77   964.73
                              983.95  1027.85  1031.25  1039.92  1204.19
                             1223.30  1251.63  1363.44  1365.10  1371.98
                             1582.65  1587.81  1590.81  1732.58  1768.88
                             1771.69  1790.19  1807.16  1827.40  1924.39
                             1931.39  1954.06  2117.33  2126.19  2162.68
                             2263.47  2270.76  2315.60  4694.45  4697.57
                             4737.91

 Zero-point correction=                           0.116893 (Hartree/Particle)
 Thermal correction to Energy=                    0.139039
 Thermal correction to Enthalpy=                  0.139983
 Thermal correction to Gibbs Free Energy=         0.058473
 Sum of electronic and zero-point Energies=          -3507.115676
 Sum of electronic and thermal Energies=             -3507.093531
 Sum of electronic and thermal Enthalpies=           -3507.092587
 Sum of electronic and thermal Free Energies=        -3507.174097

                     E (Thermal)             CV                S
                      KCal/Mol        Cal/Mol-Kelvin    Cal/Mol-Kelvin
 Total                   87.248             73.316            171.552
 Electronic               0.000              0.000              0.000
 Translational            0.889              2.981             44.368
 Rotational               0.889              2.981             36.566
 Vibrational             85.471             67.354             90.618
 Vibration     1          0.593              1.987              8.121
 Vibration     2          0.593              1.986              6.901
 Vibration     3          0.593              1.986              6.585
 Vibration     4          0.594              1.981              5.182
 Vibration     5          0.595              1.979              5.009
 Vibration     6          0.595              1.978              4.846
 Vibration     7          0.598              1.970              4.252
 Vibration     8          0.599              1.967              4.058
 Vibration     9          0.600              1.963              3.912
 Vibration    10          0.608              1.934              3.133
 Vibration    11          0.618              1.902              2.668
 Vibration    12          0.619              1.901              2.651
 Vibration    13          0.619              1.900              2.642
 Vibration    14          0.620              1.895              2.591
 Vibration    15          0.626              1.879              2.431
 Vibration    16          0.629              1.868              2.336
 Vibration    17          0.654              1.790              1.852
 Vibration    18          0.658              1.778              1.795
 Vibration    19          0.671              1.736              1.626
 Vibration    20          0.673              1.731              1.606
 Vibration    21          0.674              1.728              1.596
 Vibration    22          0.675              1.726              1.586
 Vibration    23          0.677              1.720              1.564
 Vibration    24          0.682              1.705              1.516
 Vibration    25          0.717              1.603              1.231
 Vibration    26          0.720              1.594              1.208
 Vibration    27          0.723              1.585              1.189
 Vibration    28          0.874              1.207              0.611
 Vibration    29          0.880              1.195              0.599
 Vibration    30          0.884              1.186              0.590
 Vibration    31          0.926              1.097              0.505
 Vibration    32          0.932              1.085              0.494
 Vibration    33          0.936              1.076              0.487

 Optimization completed.
    -- Stationary point found.
 Normal termination of Gaussian 16 at Fri Oct  4 11:22:26 2019.
