 Gaussian 16, Revision A.03,
 Gaussian 16:  ES64L-G16RevA.03 25-Dec-2016

 ----------------------------------------------------------------------
 # opt=(calcall,tight,cartesian) freq cam-b3lyp/gen nosymm scf=(qc,maxc
 ycle=1024,vshift=100) pseudo=read
 ----------------------------------------------------------------------

 ---------------
 Zn_PC_opt_freq3
 ---------------
 Symbolic Z-matrix:
 Charge =  0 Multiplicity = 1

 SCF Done:  E(RCAM-B3LYP) =  -3888.83681510     a.u. after    9 cycles
 Optimization completed.
    -- Stationary point found.
 Normal termination of Gaussian 16 at Fri Dec 20 12:41:54 2019.

 ----------------------------------------------------------------------
 #N Geom=AllCheck Guess=TCheck SCRF=Check GenChk RCAM-B3LYP/ChkBas Freq
 ----------------------------------------------------------------------

 Structure from the checkpoint file:  "Zn_PC_opt_freq3.chk"
 ---------------
 Zn_PC_opt_freq3
 ---------------
 Charge =  0 Multiplicity = 1

                          Input orientation:
 ---------------------------------------------------------------------
 Center     Atomic      Atomic             Coordinates (Angstroms)
 Number     Number       Type             X           Y           Z
 ---------------------------------------------------------------------
      1          3           0       -0.656174   -5.038394   -3.457440
      2          7           0       -0.282792   -3.675582   -2.194684
      3          6           0       -0.792823   -4.120562   -1.010868
      4         17           0       -1.443886   -5.726887   -0.947816
      5          7           0        2.328228    2.599049   -2.419433
      6          6           0        3.257560    1.646430   -2.167553
      7         17           0        4.892770    1.775734   -2.708638
      8          7           0       -3.327483    2.075083    1.065729
      9          6           0       -3.968087    1.040054    0.472730
     10         17           0       -5.667012    0.783674    0.638873
     11         30           0        0.001514   -0.048250   -0.163070
     12          7           0       -0.109746   -2.058027   -0.662126
     13          6           0       -0.693170   -3.141881   -0.067120
     14         17           0       -1.184148   -3.169529    1.569220
     15          7           0       -1.834517    0.835838   -0.096993
     16          6           0       -3.073401    0.279462   -0.236288
     17         17           0       -3.373019   -1.120329   -1.197285
     18          7           0        1.381753    0.914842   -1.244223
     19          6           0        2.700930    0.618620   -1.452703
     20         17           0        3.418250   -0.835392   -0.861483
     21          6           0        0.116584   -2.428836   -1.926051
     22          1           0        0.582623   -1.776211   -2.650958
     23          6           0       -2.066382    1.916848    0.691102
     24          1           0       -1.271598    2.595249    0.978380
     25          6           0        1.231957    2.124070   -1.853920
     26          1           0        0.278592    2.636860   -1.866516
     27          6           0       -1.215809    1.536603    4.586864
     28          6           0       -2.296243    0.671977    3.924139
     29          8           0       -0.141283    1.463290    3.613328
     30          6           0       -0.716899    1.030684    5.922662
     31          1           0       -3.018186    1.253643    3.347063
     32          1           0       -2.794702   -0.007453    4.614952
     33          1           0        0.152935    1.603634    6.248818
     34          1           0       -0.437065   -0.024511    5.857418
     35          1           0       -1.502783    1.134888    6.675475
     36          1           0       -1.512053    2.584829    4.638950
     37          6           0       -0.374810    0.471933    2.767946
     38          8           0       -1.536117   -0.120830    2.988462
     39          8           0        0.407423    0.146522    1.890790
 ---------------------------------------------------------------------

 SCF Done:  E(RCAM-B3LYP) =  -3888.83681510     a.u. after    1 cycles

 Alpha  occ. eigenvalues -- -101.66038-101.62472-101.59860-101.58902-101.58206
 Alpha  occ. eigenvalues -- -101.56664 -19.30880 -19.30861 -19.25686 -14.44494
 Alpha  occ. eigenvalues --  -14.44444 -14.40730 -14.39768 -14.37483 -14.35452
 Alpha  occ. eigenvalues --  -10.48401 -10.36296 -10.35927 -10.35748 -10.34798
 Alpha  occ. eigenvalues --  -10.33977 -10.31318 -10.30306 -10.29876 -10.28824
 Alpha  occ. eigenvalues --  -10.28780 -10.28448 -10.27254  -9.59247  -9.55675
 Alpha  occ. eigenvalues --   -9.53060  -9.52090  -9.51464  -9.49929  -7.35644
 Alpha  occ. eigenvalues --   -7.34753  -7.34634  -7.32153  -7.31082  -7.31080
 Alpha  occ. eigenvalues --   -7.29500  -7.28522  -7.28495  -7.28488  -7.27901
 Alpha  occ. eigenvalues --   -7.27531  -7.27520  -7.26899  -7.26880  -7.26363
 Alpha  occ. eigenvalues --   -7.25364  -7.25347  -2.16292  -1.28688  -1.16546
 Alpha  occ. eigenvalues --   -1.15976  -1.13277  -1.08008  -1.06392  -1.00821
 Alpha  occ. eigenvalues --   -0.98380  -0.94983  -0.93715  -0.93545  -0.93527
 Alpha  occ. eigenvalues --   -0.92064  -0.91505  -0.88564  -0.87068  -0.82421
 Alpha  occ. eigenvalues --   -0.82127  -0.77016  -0.75657  -0.75441  -0.71282
 Alpha  occ. eigenvalues --   -0.70349  -0.69315  -0.69030  -0.68673  -0.68232
 Alpha  occ. eigenvalues --   -0.68151  -0.66781  -0.64403  -0.63680  -0.62990
 Alpha  occ. eigenvalues --   -0.62160  -0.61538  -0.61112  -0.60037  -0.59826
 Alpha  occ. eigenvalues --   -0.57045  -0.55924  -0.55149  -0.54598  -0.54573
 Alpha  occ. eigenvalues --   -0.53403  -0.52339  -0.51527  -0.50758  -0.49683
 Alpha  occ. eigenvalues --   -0.48780  -0.48543  -0.48342  -0.47695  -0.47307
 Alpha  occ. eigenvalues --   -0.46977  -0.46353  -0.45834  -0.44998  -0.44683
 Alpha  occ. eigenvalues --   -0.44421  -0.44088  -0.43266  -0.41947  -0.41291
 Alpha  occ. eigenvalues --   -0.40688  -0.40254  -0.40107  -0.39768  -0.39263
 Alpha  occ. eigenvalues --   -0.38913  -0.38879  -0.37961  -0.37552  -0.36961
 Alpha  occ. eigenvalues --   -0.35722  -0.35331  -0.34047  -0.32481  -0.30849
 Alpha  occ. eigenvalues --   -0.30409  -0.29919  -0.29341  -0.25149  -0.23658
 Alpha virt. eigenvalues --   -0.05983  -0.00162   0.00560   0.04171   0.04761
 Alpha virt. eigenvalues --    0.05147   0.05467   0.07298   0.08032   0.08881
 Alpha virt. eigenvalues --    0.09415   0.09911   0.10579   0.10884   0.11381

 Mulliken charges:
               1
     1  Li   0.620582
     2  N   -0.501416
     3  C    0.062261
     4  Cl   0.050118
     5  N   -0.365110
     6  C    0.009027
     7  Cl  -0.027357
     8  N   -0.381750
     9  C    0.000509
    10  Cl  -0.021926
    11  Zn   1.036609
    12  N   -0.543171
    13  C    0.063911
    14  Cl   0.047423
    15  N   -0.570535
    16  C    0.053504
    17  Cl  -0.015542
    18  N   -0.602998
    19  C    0.038445
    20  Cl  -0.018435
    21  C    0.237377
    22  H    0.160177
    23  C    0.130352
    24  H    0.116461
    25  C    0.172519
    26  H    0.110781
    27  C    0.101280
    28  C    0.004579
    29  O   -0.414640
    30  C   -0.321025
    31  H    0.187232
    32  H    0.140880
    33  H    0.143940
    34  H    0.125358
    35  H    0.126225
    36  H    0.151986
    37  C    0.809642
    38  O   -0.409354
    39  O   -0.507921
 Sum of Mulliken charges =  -0.00000

 Dipole moment (field-independent basis, Debye):
    X=             -3.7828    Y=            -13.7237    Z=              1.1406  Tot=             14.2811
 Quadrupole moment (field-independent basis, Debye-Ang):
   XX=           -262.7405   YY=           -165.8739   ZZ=           -147.5777
   XY=              0.8016   XZ=              9.5441   YZ=             66.3238

  Exact polarizability: 257.583  15.544 246.600 -37.468  19.613 233.881
 Approx polarizability: 298.806  15.003 301.119 -38.006  15.904 272.896

                      1                      2                      3
                      A                      A                      A
 Frequencies --     10.3530                13.5144                15.2198
 Red. masses --     13.3830                 5.3883                24.7426
 Frc consts  --      0.0008                 0.0006                 0.0034
 IR Inten    --      0.3959                 1.3497                 0.6256

                      4                      5                      6
                      A                      A                      A
 Frequencies --     22.8491                25.6404                37.3748
 Red. masses --     12.8302                 5.9902                17.7995
 Frc consts  --      0.0039                 0.0023                 0.0146
 IR Inten    --      0.3710                 1.3792                 0.0725

                      7                      8                      9
                      A                      A                      A
 Frequencies --     47.4491                52.0172                64.3709
 Red. masses --      9.1663                19.5038                11.2451
 Frc consts  --      0.0122                 0.0311                 0.0275
 IR Inten    --      0.4536                 0.6241                 2.5030

                     10                     11                     12
                      A                      A                      A
 Frequencies --     68.6241                71.7320                73.5160
 Red. masses --      8.7408                18.8550                22.7414
 Frc consts  --      0.0243                 0.0572                 0.0724
 IR Inten    --      0.6990                 0.7148                 0.0666

                     13                     14                     15
                      A                      A                      A
 Frequencies --     77.6275                82.3186                92.0057
 Red. masses --     10.9967                 7.2187                 7.1495
 Frc consts  --      0.0390                 0.0288                 0.0357
 IR Inten    --      0.1317                 1.2635                 1.9275

                     16                     17                     18
                      A                      A                      A
 Frequencies --    123.6618               149.8362               152.4036
 Red. masses --      9.5293                33.9037                33.4600
 Frc consts  --      0.0859                 0.4485                 0.4579
 IR Inten    --      0.1833                 0.4261                 0.6593

                     19                     20                     21
                      A                      A                      A
 Frequencies --    154.8661               166.6577               178.3141
 Red. masses --     31.7841                14.5706                 6.5220
 Frc consts  --      0.4491                 0.2384                 0.1222
 IR Inten    --      0.2866                 4.8618                 8.4783

                     22                     23                     24
                      A                      A                      A
 Frequencies --    189.5584               209.4755               213.6757
 Red. masses --      9.3257                12.6230                22.9112
 Frc consts  --      0.1974                 0.3263                 0.6163
 IR Inten    --     22.6339                22.5424                26.5708

                     25                     26                     27
                      A                      A                      A
 Frequencies --    232.1602               250.8037               267.4438
 Red. masses --     17.1418                 1.1131                13.0612
 Frc consts  --      0.5444                 0.0413                 0.5504
 IR Inten    --     16.1070                 1.3809                 6.8280

                     28                     29                     30
                      A                      A                      A
 Frequencies --    268.2963               272.1150               273.4522
 Red. masses --     12.7890                13.0456                 7.6991
 Frc consts  --      0.5424                 0.5691                 0.3392
 IR Inten    --      6.7427                14.9221                 0.9317

                     31                     32                     33
                      A                      A                      A
 Frequencies --    278.9876               286.4910               288.2810
 Red. masses --      9.2815                 6.8508                 7.6698
 Frc consts  --      0.4256                 0.3313                 0.3755
 IR Inten    --      2.1005                 2.5050                10.1128

                     34                     35                     36
                      A                      A                      A
 Frequencies --    334.9113               337.7935               338.8366
 Red. masses --     25.9200                26.4436                27.1855
 Frc consts  --      1.7130                 1.7778                 1.8389
 IR Inten    --      0.8636                 3.6659                13.0808

                     37                     38                     39
                      A                      A                      A
 Frequencies --    352.4386               436.8061               520.1447
 Red. masses --      2.2843                 3.0920                11.5362
 Frc consts  --      0.1672                 0.3476                 1.8389
 IR Inten    --      8.7153                 4.7340                 1.1483

                     40                     41                     42
                      A                      A                      A
 Frequencies --    524.1646               526.7101               544.6327
 Red. masses --     11.6283                11.5589                 7.5022
 Frc consts  --      1.8824                 1.8893                 1.3111
 IR Inten    --      0.4645                 0.5676                 5.5984

                     43                     44                     45
                      A                      A                      A
 Frequencies --    566.7753               578.9990               586.2681
 Red. masses --      5.6177                 6.6237                 6.8598
 Frc consts  --      1.0632                 1.3083                 1.3892
 IR Inten    --      3.7312                 4.2607                 3.7051

                     46                     47                     48
                      A                      A                      A
 Frequencies --    676.4302               677.6982               686.0993
 Red. masses --      6.3207                 8.0447                 8.1301
 Frc consts  --      1.7040                 2.1769                 2.2549
 IR Inten    --      4.9624                 4.8344                 6.8022

                     49                     50                     51
                      A                      A                      A
 Frequencies --    701.8288               703.8040               706.1828
 Red. masses --      8.9184                 9.0006                 9.6149
 Frc consts  --      2.5882                 2.6268                 2.8251
 IR Inten    --      5.8353                 4.6329                 5.6215

                     52                     53                     54
                      A                      A                      A
 Frequencies --    735.4958               753.3267               792.7467
 Red. masses --      6.4325                 3.9415                 7.3955
 Frc consts  --      2.0502                 1.3179                 2.7383
 IR Inten    --     30.3605                 7.7167                61.7480

                     55                     56                     57
                      A                      A                      A
 Frequencies --    839.5407               847.9531               864.5670
 Red. masses --      1.3857                 1.3304                 3.7153
 Frc consts  --      0.5754                 0.5636                 1.6362
 IR Inten    --      7.9483                 6.7566                 3.4721

                     58                     59                     60
                      A                      A                      A
 Frequencies --    874.7441               939.3560               940.7526
 Red. masses --      1.3538                 7.3366                 7.4991
 Frc consts  --      0.6103                 3.8142                 3.9103
 IR Inten    --      7.1815                16.3311                32.8733

                     61                     62                     63
                      A                      A                      A
 Frequencies --    949.4199               954.8252               974.5872
 Red. masses --      7.5624                 3.0658                 1.3654
 Frc consts  --      4.0163                 1.6468                 0.7641
 IR Inten    --     22.6853                 5.8739                 4.5637

                     64                     65                     66
                      A                      A                      A
 Frequencies --   1000.6501              1092.1173              1093.7515
 Red. masses --      3.4192                 4.8405                 4.5396
 Frc consts  --      2.0172                 3.4016                 3.1997
 IR Inten    --     10.9559                77.5222               150.1012

                     67                     68                     69
                      A                      A                      A
 Frequencies --   1096.2085              1102.1113              1108.0796
 Red. masses --      4.9941                 2.1934                 2.6702
 Frc consts  --      3.5358                 1.5697                 1.9317
 IR Inten    --    168.9733                55.7500                24.4281

                     70                     71                     72
                      A                      A                      A
 Frequencies --   1171.1619              1190.4861              1201.6548
 Red. masses --      3.5025                 1.9293                 5.7535
 Frc consts  --      2.8305                 1.6110                 4.8949
 IR Inten    --    132.1861                15.7127                26.6717

                     73                     74                     75
                      A                      A                      A
 Frequencies --   1225.1894              1226.8237              1247.0898
 Red. masses --      3.5058                 4.1128                 2.9592
 Frc consts  --      3.1006                 3.6471                 2.7116
 IR Inten    --     56.1954                42.3344               120.8967

                     76                     77                     78
                      A                      A                      A
 Frequencies --   1251.6538              1257.3731              1271.0774
 Red. masses --      2.5272                 1.5477                 2.2228
 Frc consts  --      2.3327                 1.4416                 2.1159
 IR Inten    --     48.7683                86.3783                13.2207

                     79                     80                     81
                      A                      A                      A
 Frequencies --   1286.4027              1336.4265              1342.1090
 Red. masses --      1.4468                11.6281                11.5069
 Frc consts  --      1.4106                12.2363                12.2119
 IR Inten    --     69.7512                25.3133                33.7562

                     82                     83                     84
                      A                      A                      A
 Frequencies --   1357.8526              1391.2618              1402.4095
 Red. masses --      7.4964                 1.5396                 1.3711
 Frc consts  --      8.1435                 1.7558                 1.5888
 IR Inten    --     44.1548                32.8977                19.4514

                     85                     86                     87
                      A                      A                      A
 Frequencies --   1445.7024              1468.4681              1474.5752
 Red. masses --      1.3841                 2.7758                 2.7175
 Frc consts  --      1.7044                 3.5267                 3.4814
 IR Inten    --     21.7720                99.7412                32.4480

                     88                     89                     90
                      A                      A                      A
 Frequencies --   1481.4877              1503.4948              1506.7119
 Red. masses --      2.1008                 3.3827                 1.0618
 Frc consts  --      2.7166                 4.5052                 1.4202
 IR Inten    --    101.8648                63.2622                 2.2719

                     91                     92                     93
                      A                      A                      A
 Frequencies --   1514.1847              1540.0874              1559.4008
 Red. masses --      1.0556                 1.1327                11.1895
 Frc consts  --      1.4260                 1.5829                16.0316
 IR Inten    --      5.7936                 3.9634                45.9758

                     94                     95                     96
                      A                      A                      A
 Frequencies --   1566.7640              1606.0617              1844.0027
 Red. masses --     11.9508                11.8646                12.5420
 Frc consts  --     17.2844                18.0313                25.1270
 IR Inten    --     32.1309                46.6387               929.3306

                     97                     98                     99
                      A                      A                      A
 Frequencies --   3081.6064              3119.6297              3148.9321
 Red. masses --      1.0368                 1.0611                 1.0939
 Frc consts  --      5.8011                 6.0841                 6.3910
 IR Inten    --      4.3995                21.9357                 0.2456

                    100                    101                    102
                      A                      A                      A
 Frequencies --   3165.3550              3177.6198              3194.0032
 Red. masses --      1.0995                 1.1037                 1.1125
 Frc consts  --      6.4906                 6.5662                 6.6866
 IR Inten    --     16.5160                 6.0590                 2.7412

                    103                    104                    105
                      A                      A                      A
 Frequencies --   3248.8697              3263.4197              3290.2678
 Red. masses --      1.0951                 1.0955                 1.0984
 Frc consts  --      6.8101                 6.8741                 7.0059
 IR Inten    --      3.2389                 4.1504                 0.8637

 - Thermochemistry -
 -------------------
 Temperature   298.150 Kelvin.  Pressure   1.00000 Atm.
 Atom     1 has atomic number  3 and mass   7.01600

 Molecular mass:   577.83188 amu.
 Principal axes and moments of inertia in atomic units:
                           1         2         3
     Eigenvalues --  ******************************
           X            0.87074   0.11740   0.47753
           Y            0.12078   0.89029  -0.43910
           Z           -0.47669   0.44001   0.76103
 This molecule is an asymmetric top.
 Rotational symmetry number  1.
 Warning -- assumption of classical behavior for rotation
           may cause significant error
 Rotational temperatures (Kelvin)      0.00530     0.00405     0.00315
 Rotational constants (GHZ):           0.11044     0.08443     0.06564
 Zero-point vibrational energy     585162.1 (Joules/Mol)
                                  139.85710 (Kcal/Mol)
 Warning -- explicit consideration of  45 degrees of freedom as
           vibrations may cause significant error
 Vibrational temperatures:     14.90    19.44    21.90    32.87    36.89
          (Kelvin)             53.77    68.27    74.84    92.62    98.73
                              103.21   105.77   111.69   118.44   132.38
                              177.92   215.58   219.27   222.82   239.78
                              256.55   272.73   301.39   307.43   334.03
                              360.85   384.79   386.02   391.51   393.44
                              401.40   412.20   414.77   481.86   486.01
                              487.51   507.08   628.47   748.37   754.16
                              757.82   783.60   815.46   833.05   843.51
                              973.23   975.06   987.14  1009.78  1012.62
                             1016.04  1058.21  1083.87  1140.59  1207.91
                             1220.02  1243.92  1258.56  1351.52  1353.53
                             1366.00  1373.78  1402.21  1439.71  1571.31
                             1573.66  1577.20  1585.69  1594.28  1685.04
                             1712.84  1728.91  1762.77  1765.13  1794.28
                             1800.85  1809.08  1828.80  1850.85  1922.82
                             1931.00  1953.65  2001.72  2017.75  2080.04
                             2112.80  2121.58  2131.53  2163.19  2167.82
                             2178.57  2215.84  2243.63  2254.22  2310.76
                             2653.11  4433.74  4488.45  4530.61  4554.24
                             4571.89  4595.46  4674.40  4695.33  4733.96

 Zero-point correction=                           0.222876 (Hartree/Particle)
 Thermal correction to Energy=                    0.252820
 Thermal correction to Enthalpy=                  0.253764
 Thermal correction to Gibbs Free Energy=         0.153252
 Sum of electronic and zero-point Energies=          -3888.613939
 Sum of electronic and thermal Energies=             -3888.583995
 Sum of electronic and thermal Enthalpies=           -3888.583051
 Sum of electronic and thermal Free Energies=        -3888.683563

                     E (Thermal)             CV                S
                      KCal/Mol        Cal/Mol-Kelvin    Cal/Mol-Kelvin
 Total                  158.647            100.471            211.546
 Electronic               0.000              0.000              0.000
 Translational            0.889              2.981             44.947
 Rotational               0.889              2.981             37.505
 Vibrational            156.870             94.510            129.095
 Vibration     1          0.593              1.987              7.942
 Vibration     2          0.593              1.986              7.413
 Vibration     3          0.593              1.986              7.177
 Vibration     4          0.593              1.985              6.370
 Vibration     5          0.593              1.985              6.141
 Vibration     6          0.594              1.982              5.394
 Vibration     7          0.595              1.979              4.921
 Vibration     8          0.596              1.977              4.739
 Vibration     9          0.597              1.971              4.318
 Vibration    10          0.598              1.969              4.192
 Vibration    11          0.598              1.967              4.105
 Vibration    12          0.599              1.966              4.057
 Vibration    13          0.599              1.964              3.950
 Vibration    14          0.600              1.961              3.835
 Vibration    15          0.602              1.955              3.617
 Vibration    16          0.610              1.929              3.042
 Vibration    17          0.618              1.903              2.674
 Vibration    18          0.619              1.900              2.642
 Vibration    19          0.620              1.897              2.612
 Vibration    20          0.624              1.883              2.473
 Vibration    21          0.629              1.869              2.346
 Vibration    22          0.633              1.854              2.232
 Vibration    23          0.642              1.826              2.048
 Vibration    24          0.644              1.820              2.012
 Vibration    25          0.653              1.792              1.862
 Vibration    26          0.663              1.761              1.725
 Vibration    27          0.673              1.733              1.613
 Vibration    28          0.673              1.731              1.607
 Vibration    29          0.675              1.725              1.583
 Vibration    30          0.676              1.722              1.574
 Vibration    31          0.679              1.712              1.540
 Vibration    32          0.684              1.699              1.495
 Vibration    33          0.685              1.695              1.484
 Vibration    34          0.716              1.606              1.236
 Vibration    35          0.718              1.600              1.223
 Vibration    36          0.719              1.598              1.218
 Vibration    37          0.729              1.570              1.155
 Vibration    38          0.797              1.390              0.837
 Vibration    39          0.875              1.205              0.610
 Vibration    40          0.879              1.196              0.600
 Vibration    41          0.882              1.191              0.595
 Vibration    42          0.900              1.151              0.555
 Vibration    43          0.923              1.103              0.510
 Vibration    44          0.936              1.077              0.487
 Vibration    45          0.943              1.061              0.474

 Optimization completed.
    -- Stationary point found.
 Normal termination of Gaussian 16 at Fri Dec 20 12:57:33 2019.
