 Gaussian 16, Revision B.01,
 Gaussian 16:  ES64L-G16RevB.01 20-Dec-2017

 ----------------------------------------------------------------------
 # irc=(calcfc,maxpoints=120,recalc=3) cam-b3lyp/gen nosymm scf=(qc,max
 cycle=1024,vshift=100) pseudo=read
 ----------------------------------------------------------------------

 ----------
 IRC_3_TBAB
 ----------
 Symbolic Z-matrix:
 Charge =  0 Multiplicity = 1

 SCF Done:  E(RCAM-B3LYP) =  -6957.55099245     a.u. after    9 cycles
 SCF Done:  E(RCAM-B3LYP) =  -6957.55139565     a.u. after   10 cycles
 SCF Done:  E(RCAM-B3LYP) =  -6957.55257418     a.u. after    9 cycles
 SCF Done:  E(RCAM-B3LYP) =  -6957.55436888     a.u. after    9 cycles
 SCF Done:  E(RCAM-B3LYP) =  -6957.55645216     a.u. after    9 cycles
 SCF Done:  E(RCAM-B3LYP) =  -6957.55835336     a.u. after    9 cycles
 SCF Done:  E(RCAM-B3LYP) =  -6957.55836283     a.u. after    2 cycles
 SCF Done:  E(RCAM-B3LYP) =  -6957.55966943     a.u. after    9 cycles
 SCF Done:  E(RCAM-B3LYP) =  -6957.55969287     a.u. after    2 cycles
 SCF Done:  E(RCAM-B3LYP) =  -6957.56057751     a.u. after    5 cycles
 SCF Done:  E(RCAM-B3LYP) =  -6957.57050376     a.u. after    4 cycles
 SCF Done:  E(RCAM-B3LYP) =  -6957.57063686     a.u. after    3 cycles
 SCF Done:  E(RCAM-B3LYP) =  -6957.57075075     a.u. after    3 cycles
 SCF Done:  E(RCAM-B3LYP) =  -6957.57084936     a.u. after    3 cycles
 SCF Done:  E(RCAM-B3LYP) =  -6957.57093524     a.u. after    3 cycles
 SCF Done:  E(RCAM-B3LYP) =  -6957.57101077     a.u. after    3 cycles
 SCF Done:  E(RCAM-B3LYP) =  -6957.57107792     a.u. after    3 cycles
 SCF Done:  E(RCAM-B3LYP) =  -6957.57113832     a.u. after    3 cycles
 SCF Done:  E(RCAM-B3LYP) =  -6957.57119342     a.u. after    3 cycles
 SCF Done:  E(RCAM-B3LYP) =  -6957.57124424     a.u. after    3 cycles

                          Input orientation:
 ---------------------------------------------------------------------
 Center     Atomic      Atomic             Coordinates (Angstroms)
 Number     Number       Type             X           Y           Z
 ---------------------------------------------------------------------
      1          3           0       -1.732322   -6.833262   -3.630913
      2          7           0       -1.358940   -5.470450   -2.368157
      3          6           0       -2.062606   -5.844191   -1.261149
      4         17           0       -2.845846   -7.397387   -1.277761
      5          7           0        1.252080    0.804181   -2.592906
      6          6           0        2.172786   -0.187318   -2.535041
      7         17           0        3.735489   -0.040451   -3.269435
      8          7           0       -4.403631    0.280215    0.892256
      9          6           0       -4.586446    0.210193   -0.447206
     10         17           0       -5.954649    0.915336   -1.238911
     11         30           0       -0.898484   -1.881954   -0.073044
     12          7           0       -1.286792   -3.825966   -0.848460
     13          6           0       -2.026300   -4.849404   -0.327501
     14         17           0       -2.744440   -4.796661    1.223303
     15          7           0       -2.683119   -0.853309   -0.049311
     16          6           0       -3.550955   -0.476999   -1.030617
     17         17           0       -3.296550   -0.878080   -2.692736
     18          7           0        0.387033   -0.973587   -1.479417
     19          6           0        1.663370   -1.267468   -1.854954
     20         17           0        2.419683   -2.774550   -1.487272
     21          6           0       -0.917444   -4.241704   -2.060762
     22          1           0       -0.316868   -3.637172   -2.724619
     23          6           0       -3.260381   -0.370266    1.079205
     24          1           0       -2.810114   -0.528653    2.049828
     25          6           0        0.202748    0.277299   -1.959537
     26          1           0       -0.744799    0.788394   -1.849761
     27          6           0        0.864650   -1.103480    2.166688
     28          6           0        0.173826   -0.075987    3.068377
     29          8           0       -0.160473   -1.892348    1.692042
     30          6           0        1.897188   -1.935471    2.921037
     31          1           0       -0.598380    0.461251    2.523796
     32          1           0       -0.246743   -0.543584    3.957052
     33          1           0        2.345216   -2.657662    2.234456
     34          1           0        1.400461   -2.493491    3.720737
     35          1           0        2.691245   -1.321122    3.356323
     36          1           0        1.389943   -0.545472    1.367417
     37          7           0        2.115450    3.811113    0.142862
     38          6           0        0.830860    2.986451    0.270081
     39          1           0        0.925637    2.449833    1.215130
     40          1           0        0.870763    2.260095   -0.542371
     41          6           0        1.898755    4.923982   -0.857882
     42          1           0        1.080927    5.533700   -0.478323
     43          1           0        1.548585    4.431128   -1.768208
     44          6           0        3.214841    2.897086   -0.392152
     45          1           0        4.131040    3.488527   -0.358431
     46          1           0        2.958717    2.697380   -1.435533
     47          6           0        2.572590    4.330433    1.489534
     48          1           0        3.518246    4.845404    1.312637
     49          1           0        2.782855    3.446503    2.089136
     50         35           0        1.380457    1.360416    3.774925
     51          6           0        1.621454    5.225411    2.268872
     52          6           0        2.300669    5.696675    3.558567
     53          1           0        0.718577    4.671161    2.536421
     54          1           0        1.314366    6.098581    1.682529
     55          6           0        1.382606    6.561751    4.416205
     56          1           0        2.619643    4.820370    4.134720
     57          1           0        3.212044    6.255091    3.311608
     58          1           0        1.887925    6.885232    5.329283
     59          1           0        1.062585    7.458563    3.876648
     60          1           0        0.484775    6.010603    4.710213
     61          6           0        3.418250    1.576127    0.345304
     62          6           0        4.839253    1.054580    0.111196
     63          1           0        2.699005    0.839107   -0.019685
     64          1           0        3.250676    1.665904    1.421518
     65          6           0        5.043188   -0.336031    0.703039
     66          1           0        5.046316    1.026299   -0.963366
     67          1           0        5.556560    1.758191    0.554118
     68          1           0        6.070687   -0.678275    0.555036
     69          1           0        4.836682   -0.344781    1.777793
     70          1           0        4.377370   -1.062997    0.230082
     71          6           0       -0.499363    3.736375    0.206847
     72          6           0       -1.630045    2.837665    0.719369
     73          1           0       -0.718311    4.032323   -0.824194
     74          1           0       -0.489350    4.651524    0.803801
     75          6           0       -3.001967    3.492474    0.599711
     76          1           0       -1.632949    1.887700    0.174589
     77          1           0       -1.433548    2.586189    1.768715
     78          1           0       -3.775023    2.813293    0.964511
     79          1           0       -3.050079    4.422786    1.176326
     80          1           0       -3.235413    3.730785   -0.442678
     81          6           0        3.096285    5.814779   -1.164233
     82          6           0        2.694595    6.917794   -2.148347
     83          1           0        3.917366    5.237363   -1.598149
     84          1           0        3.477800    6.283716   -0.251084
     85          6           0        3.857974    7.845592   -2.484952
     86          1           0        2.308716    6.461839   -3.067327
     87          1           0        1.868928    7.501586   -1.724166
     88          1           0        3.549451    8.623990   -3.186671
     89          1           0        4.243532    8.339878   -1.587891
     90          1           0        4.684486    7.293827   -2.942642
 ---------------------------------------------------------------------

 Alpha  occ. eigenvalues -- -482.71049-101.64294-101.59887-101.59043-101.58493
 Alpha  occ. eigenvalues -- -101.57248-101.55612 -61.79235 -56.36194 -56.35905
 Alpha  occ. eigenvalues --  -56.35884 -19.11440 -14.55212 -14.42108 -14.41624
 Alpha  occ. eigenvalues --  -14.39238 -14.37231 -14.36832 -14.34010 -10.33948
 Alpha  occ. eigenvalues --  -10.33657 -10.33561 -10.33270 -10.32697 -10.31680
 Alpha  occ. eigenvalues --  -10.31361 -10.30405 -10.29761 -10.29738 -10.29043
 Alpha  occ. eigenvalues --  -10.28541 -10.28120 -10.27976 -10.27938 -10.27578
 Alpha  occ. eigenvalues --  -10.27260 -10.27227 -10.26843 -10.26836 -10.26560
 Alpha  occ. eigenvalues --  -10.26151 -10.25564 -10.25221 -10.24831 -10.23532
 Alpha  occ. eigenvalues --  -10.22375 -10.20323  -9.57508  -9.53074  -9.52205
 Alpha  occ. eigenvalues --   -9.51711  -9.50425  -9.48870  -8.57408  -7.33891
 Alpha  occ. eigenvalues --   -7.33026  -7.32899  -7.29555  -7.28644  -7.28484
 Alpha  occ. eigenvalues --   -7.28477  -7.28132  -7.27649  -7.27632  -7.27162
 Alpha  occ. eigenvalues --   -7.27139  -7.26854  -7.25865  -7.25862  -7.25295
 Alpha  occ. eigenvalues --   -7.24311  -7.24295  -6.59031  -6.57990  -6.57960
 Alpha  occ. eigenvalues --   -2.71206  -2.70917  -2.70893  -2.70068  -2.70068
 Alpha  occ. eigenvalues --   -2.14479  -1.11838  -1.10707  -1.06918  -1.04560
 Alpha  occ. eigenvalues --   -0.99667  -0.98660  -0.95883  -0.94148  -0.93014
 Alpha  occ. eigenvalues --   -0.92754  -0.92074  -0.91914  -0.91045  -0.90565
 Alpha  occ. eigenvalues --   -0.90483  -0.88914  -0.87796  -0.85544  -0.85428
 Alpha  occ. eigenvalues --   -0.85392  -0.84261  -0.82801  -0.79772  -0.79595
 Alpha  occ. eigenvalues --   -0.77480  -0.76756  -0.75958  -0.74490  -0.73830
 Alpha  occ. eigenvalues --   -0.73631  -0.72001  -0.69812  -0.69104  -0.68323
 Alpha  occ. eigenvalues --   -0.67315  -0.66638  -0.66109  -0.64996  -0.64198
 Alpha  occ. eigenvalues --   -0.63763  -0.63456  -0.62811  -0.62572  -0.62336
 Alpha  occ. eigenvalues --   -0.61632  -0.61502  -0.60772  -0.60487  -0.60339
 Alpha  occ. eigenvalues --   -0.59341  -0.58726  -0.58354  -0.58193  -0.56799
 Alpha  occ. eigenvalues --   -0.55810  -0.55446  -0.54797  -0.53087  -0.52647
 Alpha  occ. eigenvalues --   -0.52604  -0.52339  -0.51692  -0.51494  -0.51132
 Alpha  occ. eigenvalues --   -0.50677  -0.50003  -0.49670  -0.49663  -0.49259
 Alpha  occ. eigenvalues --   -0.49125  -0.48848  -0.48419  -0.47583  -0.47456
 Alpha  occ. eigenvalues --   -0.47105  -0.46951  -0.46771  -0.46582  -0.45906
 Alpha  occ. eigenvalues --   -0.45408  -0.45330  -0.45243  -0.44994  -0.44853
 Alpha  occ. eigenvalues --   -0.43844  -0.43661  -0.43472  -0.43353  -0.43013
 Alpha  occ. eigenvalues --   -0.42903  -0.42842  -0.42512  -0.42343  -0.42295
 Alpha  occ. eigenvalues --   -0.42178  -0.41761  -0.41584  -0.40975  -0.40664
 Alpha  occ. eigenvalues --   -0.40374  -0.40278  -0.39903  -0.39725  -0.39513
 Alpha  occ. eigenvalues --   -0.39136  -0.38983  -0.38798  -0.38520  -0.38269
 Alpha  occ. eigenvalues --   -0.37927  -0.37757  -0.37215  -0.36927  -0.36705
 Alpha  occ. eigenvalues --   -0.36047  -0.35362  -0.34982  -0.33450  -0.32843
 Alpha  occ. eigenvalues --   -0.32605  -0.32336  -0.31893  -0.29915  -0.29061
 Alpha  occ. eigenvalues --   -0.27551  -0.27514  -0.26534  -0.25393  -0.24349
 Alpha  occ. eigenvalues --   -0.22020
 Alpha virt. eigenvalues --   -0.04705   0.01287   0.01980   0.06077   0.06356
 Alpha virt. eigenvalues --    0.06952   0.07860   0.08534   0.09517   0.09920
 Alpha virt. eigenvalues --    0.10370   0.10696   0.10997   0.11247   0.11561

 Mulliken charges:
               1
     1  Li   0.596750
     2  N   -0.500575
     3  C    0.056507
     4  Cl   0.043465
     5  N   -0.411341
     6  C   -0.012531
     7  Cl  -0.040742
     8  N   -0.382567
     9  C    0.002320
    10  Cl  -0.044518
    11  Zn   0.994840
    12  N   -0.510962
    13  C    0.057787
    14  Cl   0.056923
    15  N   -0.562169
    16  C    0.032335
    17  Cl  -0.032107
    18  N   -0.535481
    19  C    0.028287
    20  Cl  -0.010248
    21  C    0.228380
    22  H    0.144561
    23  C    0.162491
    24  H    0.105831
    25  C    0.157879
    26  H    0.114972
    27  C    0.244566
    28  C   -0.180347
    29  O   -0.717737
    30  C   -0.312982
    31  H    0.146085
    32  H    0.152956
    33  H    0.111010
    34  H    0.099725
    35  H    0.082157
    36  H    0.037115
    37  N   -0.412274
    38  C   -0.082916
    39  H    0.157970
    40  H    0.172397
    41  C   -0.060764
    42  H    0.142855
    43  H    0.164615
    44  C   -0.081685
    45  H    0.124299
    46  H    0.176931
    47  C   -0.064249
    48  H    0.126767
    49  H    0.157717
    50  Br  -0.258339
    51  C   -0.197859
    52  C   -0.186653
    53  H    0.140424
    54  H    0.102630
    55  C   -0.316061
    56  H    0.116823
    57  H    0.095260
    58  H    0.113804
    59  H    0.103328
    60  H    0.119151
    61  C   -0.212403
    62  C   -0.189094
    63  H    0.154330
    64  H    0.122780
    65  C   -0.320721
    66  H    0.118882
    67  H    0.080898
    68  H    0.100342
    69  H    0.108093
    70  H    0.134589
    71  C   -0.202373
    72  C   -0.200557
    73  H    0.112306
    74  H    0.099494
    75  C   -0.323145
    76  H    0.133710
    77  H    0.105747
    78  H    0.159376
    79  H    0.080702
    80  H    0.102306
    81  C   -0.206709
    82  C   -0.186039
    83  H    0.124835
    84  H    0.109945
    85  C   -0.315752
    86  H    0.114498
    87  H    0.103404
    88  H    0.116758
    89  H    0.105538
    90  H    0.111450
 Sum of Mulliken charges =  -0.00000

 Dipole moment (field-independent basis, Debye):
    X=              8.8622    Y=              1.3100    Z=             -6.2441  Tot=             10.9199
 Quadrupole moment (field-independent basis, Debye-Ang):
   XX=           -366.3184   YY=           -180.1933   ZZ=           -310.9668
   XY=             53.5812   XZ=             18.9618   YZ=             67.4059

  Exact polarizability:   0.000   0.000   0.000   0.000   0.000   0.000
 Approx polarizability: 497.084   1.950 511.312 -21.256  10.667 511.110

 Normal termination of Gaussian 16 at Tue Mar  7 09:12:21 2023.
