 Gaussian 16, Revision A.03,
 Gaussian 16:  ES64L-G16RevA.03 25-Dec-2016

 ------------------------------------------------------------------
 # opt=(calcfc,tight) freq cam-b3lyp/gen nosymm pseudo=read scf=xqc
 ------------------------------------------------------------------

 -----------------
 PO_opt_freq_6_31G
 -----------------
 Symbolic Z-matrix:
 Charge =  0 Multiplicity = 1

 SCF Done:  E(RCAM-B3LYP) =  -193.013621531     A.U. after   12 cycles
 Optimization completed.
    -- Stationary point found.
 Normal termination of Gaussian 16 at Thu Aug 22 12:09:08 2019.

 ----------------------------------------------------------------------
 #N Geom=AllCheck Guess=TCheck SCRF=Check GenChk RCAM-B3LYP/ChkBas Freq
 ----------------------------------------------------------------------

 Structure from the checkpoint file:  "PO_opt_freq_6_31G.chk"
 -----------------
 PO_opt_freq_6_31G
 -----------------
 Charge =  0 Multiplicity = 1

                          Input orientation:
 ---------------------------------------------------------------------
 Center     Atomic      Atomic             Coordinates (Angstroms)
 Number     Number       Type             X           Y           Z
 ---------------------------------------------------------------------
      1          6           0       -0.149538   -0.045969    0.488147
      2          6           0        1.039368    0.613872   -0.057161
      3          8           0        0.821093   -0.779168   -0.251638
      4          6           0       -1.503468    0.100045   -0.147509
      5          1           0        1.869606    0.873201    0.598245
      6          1           0        0.942858    1.231797   -0.949346
      7          1           0       -2.072420   -0.829768   -0.060187
      8          1           0       -1.401751    0.338835   -1.208757
      9          1           0       -2.076936    0.895211    0.338155
     10          1           0       -0.151213   -0.272854    1.555756
 ---------------------------------------------------------------------

 SCF Done:  E(RCAM-B3LYP) =  -193.013621531     A.U. after    1 cycles

 Alpha  occ. eigenvalues --  -19.21889 -10.30889 -10.30128 -10.25113  -1.15045
 Alpha  occ. eigenvalues --   -0.82444  -0.73359  -0.66864  -0.57602  -0.53287
 Alpha  occ. eigenvalues --   -0.49170  -0.46693  -0.43616  -0.42810  -0.35806
 Alpha  occ. eigenvalues --   -0.32640
 Alpha virt. eigenvalues --    0.15728   0.16885   0.18250   0.18802   0.19956
 Alpha virt. eigenvalues --    0.22893   0.23304   0.23805   0.31593   0.37898
 Alpha virt. eigenvalues --    0.52944   0.57778   0.60094   0.63368   0.64909

 Mulliken charges:
               1
     1  C    0.134366
     2  C   -0.010300
     3  O   -0.453460
     4  C   -0.322548
     5  H    0.105882
     6  H    0.103543
     7  H    0.119599
     8  H    0.114205
     9  H    0.108137
    10  H    0.100576
 Sum of Mulliken charges =  -0.00000

 Dipole moment (field-independent basis, Debye):
    X=             -0.8601    Y=              1.6644    Z=              0.7019  Tot=              2.0006
 Quadrupole moment (field-independent basis, Debye-Ang):
   XX=            -24.0886   YY=            -25.9008   ZZ=            -23.9696
   XY=              2.2528   XZ=              0.4322   YZ=             -1.0519

  Exact polarizability:  38.651   3.605  29.930  -0.867  -1.882  31.248
 Approx polarizability:  40.003   2.687  36.787  -2.395  -0.956  35.881

                      1                      2                      3
                      A                      A                      A
 Frequencies --    210.2654               370.1269               413.8428
 Red. masses --      1.0948                 2.3358                 2.3887
 Frc consts  --      0.0285                 0.1885                 0.2410
 IR Inten    --      0.5068                 3.7724                 4.6407

                      4                      5                      6
                      A                      A                      A
 Frequencies --    809.8275               885.3936               919.8234
 Red. masses --      2.8215                 2.8691                 1.2192
 Frc consts  --      1.0902                 1.3252                 0.6078
 IR Inten    --      5.6657                33.3082                 2.8956

                      7                      8                      9
                      A                      A                      A
 Frequencies --   1010.6070              1052.7973              1147.8179
 Red. masses --      2.7200                 1.1700                 1.4240
 Frc consts  --      1.6367                 0.7641                 1.1054
 IR Inten    --     13.6986                10.0091                 7.5573

                     10                     11                     12
                      A                      A                      A
 Frequencies --   1173.6789              1183.1490              1207.6001
 Red. masses --      1.3836                 1.7875                 1.6647
 Frc consts  --      1.1230                 1.4743                 1.4303
 IR Inten    --      1.2586                 4.9510                 3.4244

                     13                     14                     15
                      A                      A                      A
 Frequencies --   1316.9294              1424.4641              1473.2344
 Red. masses --      1.4645                 1.2661                 1.5340
 Frc consts  --      1.4965                 1.5137                 1.9617
 IR Inten    --      4.4179                 3.7312                18.9743

                     16                     17                     18
                      A                      A                      A
 Frequencies --   1503.5355              1518.0221              1568.1536
 Red. masses --      1.0497                 1.0603                 1.6160
 Frc consts  --      1.3982                 1.4396                 2.3413
 IR Inten    --      4.2453                 5.2110                 8.5936

                     19                     20                     21
                      A                      A                      A
 Frequencies --   3074.8158              3118.5315              3133.7318
 Red. masses --      1.0363                 1.0513                 1.0900
 Frc consts  --      5.7724                 6.0237                 6.3069
 IR Inten    --     14.0027                23.4447                16.2312

                     22                     23                     24
                      A                      A                      A
 Frequencies --   3148.3382              3164.4995              3206.5490
 Red. masses --      1.1028                 1.1032                 1.1205
 Frc consts  --      6.4406                 6.5093                 6.7879
 IR Inten    --     18.0918                24.6380                30.8354

 - Thermochemistry -
 -------------------
 Temperature   298.150 Kelvin.  Pressure   1.00000 Atm.
 Atom     1 has atomic number  6 and mass  12.00000

 Molecular mass:    58.04186 amu.
 Principal axes and moments of inertia in atomic units:
                           1         2         3
     Eigenvalues --    98.74917 269.68088 301.88161
           X            0.99895   0.04332   0.01512
           Y           -0.04119   0.99186  -0.12049
           Z           -0.02021   0.11974   0.99260
 This molecule is an asymmetric top.
 Rotational symmetry number  1.
 Rotational temperatures (Kelvin)      0.87711     0.32117     0.28691
 Rotational constants (GHZ):          18.27601     6.69214     5.97831
 Zero-point vibrational energy     227504.2 (Joules/Mol)
                                   54.37481 (Kcal/Mol)
 Warning -- explicit consideration of   3 degrees of freedom as
           vibrations may cause significant error
 Vibrational temperatures:    302.53   532.53   595.43  1165.16  1273.88
          (Kelvin)           1323.42  1454.04  1514.74  1651.45  1688.66
                             1702.29  1737.47  1894.77  2049.49  2119.66
                             2163.25  2184.10  2256.22  4423.97  4486.87
                             4508.74  4529.76  4553.01  4613.51

 Zero-point correction=                           0.086652 (Hartree/Particle)
 Thermal correction to Energy=                    0.091022
 Thermal correction to Enthalpy=                  0.091966
 Thermal correction to Gibbs Free Energy=         0.060303
 Sum of electronic and zero-point Energies=           -192.926970
 Sum of electronic and thermal Energies=              -192.922599
 Sum of electronic and thermal Enthalpies=            -192.921655
 Sum of electronic and thermal Free Energies=         -192.953318

                     E (Thermal)             CV                S
                      KCal/Mol        Cal/Mol-Kelvin    Cal/Mol-Kelvin
 Total                   57.117             14.481             66.641
 Electronic               0.000              0.000              0.000
 Translational            0.889              2.981             38.096
 Rotational               0.889              2.981             23.601
 Vibrational             55.340              8.520              4.943
 Vibration     1          0.642              1.825              2.041
 Vibration     2          0.742              1.534              1.079
 Vibration     3          0.777              1.440              0.913

 Optimization completed.
    -- Stationary point found.
 Normal termination of Gaussian 16 at Thu Aug 22 12:09:30 2019.
