 Gaussian 16, Revision A.03,
 Gaussian 16:  ES64L-G16RevA.03 25-Dec-2016

 ------------------------------------------------------------------
 # opt=(calcfc,tight) freq cam-b3lyp/gen nosymm pseudo=read scf=xqc
 ------------------------------------------------------------------

 --------------
 TBABr_opt_freq
 --------------
 Symbolic Z-matrix:
 Charge =  0 Multiplicity = 1

 SCF Done:  E(RCAM-B3LYP) =  -3257.24839733     A.U. after   13 cycles
 SCF Done:  E(RCAM-B3LYP) =  -3257.24839733     A.U. after    3 cycles
 Optimization completed.
    -- Stationary point found.
 Normal termination of Gaussian 16 at Thu Sep 26 10:43:13 2019.

 ----------------------------------------------------------------------
 #N Geom=AllCheck Guess=TCheck SCRF=Check GenChk RCAM-B3LYP/ChkBas Freq
 ----------------------------------------------------------------------

 Structure from the checkpoint file:  "TBABr_opt_freq.chk"
 --------------
 TBABr_opt_freq
 --------------
 Charge =  0 Multiplicity = 1

                          Input orientation:
 ---------------------------------------------------------------------
 Center     Atomic      Atomic             Coordinates (Angstroms)
 Number     Number       Type             X           Y           Z
 ---------------------------------------------------------------------
      1          7           0       -0.225152    0.454403    0.244316
      2          6           0       -1.221238    1.178293    1.151440
      3          1           0       -0.753164    2.144022    1.385795
      4          1           0       -1.279161    0.571723    2.058635
      5          6           0       -0.921328   -0.680151   -0.460988
      6          1           0       -1.714836   -0.235718   -1.059534
      7          1           0       -1.397957   -1.273922    0.324370
      8          6           0        0.871754   -0.111066    1.133483
      9          1           0        1.669272   -0.431833    0.461759
     10          1           0        0.452648   -1.005540    1.603649
     11          6           0        0.453206    1.406186   -0.735056
     12          1           0        1.208147    0.807833   -1.248538
     13          1           0        0.933982    2.173585   -0.121338
     14         35           0        0.373392    4.310426    1.068135
     15          6           0       -0.423698    2.140695   -1.733040
     16          6           0        0.473137    2.961788   -2.663645
     17          1           0       -1.057472    2.845698   -1.191352
     18          1           0       -1.054735    1.464350   -2.323680
     19          6           0       -0.332456    3.761010   -3.682360
     20          1           0        1.059077    3.645777   -2.041008
     21          1           0        1.179817    2.301321   -3.183442
     22          1           0        0.324025    4.342429   -4.334781
     23          1           0       -0.940223    3.107507   -4.317610
     24          1           0       -1.004499    4.461877   -3.179169
     25          6           0        1.433724    0.837286    2.191065
     26          6           0        2.801623    0.348470    2.671355
     27          1           0        0.752554    0.887881    3.045685
     28          1           0        1.513496    1.865370    1.819694
     29          6           0        3.351454    1.218055    3.797862
     30          1           0        2.734563   -0.694896    3.007890
     31          1           0        3.502884    0.354693    1.827653
     32          1           0        4.343730    0.882074    4.109858
     33          1           0        3.428193    2.261596    3.480825
     34          1           0        2.696760    1.187406    4.674004
     35          6           0       -2.633168    1.409302    0.624390
     36          6           0       -3.339600    2.403010    1.553264
     37          1           0       -3.205294    0.474890    0.582501
     38          1           0       -2.623975    1.826054   -0.383986
     39          6           0       -4.775599    2.681093    1.122195
     40          1           0       -3.332729    2.011861    2.578410
     41          1           0       -2.757740    3.330821    1.570877
     42          1           0       -5.256739    3.393593    1.796729
     43          1           0       -4.808993    3.106943    0.114514
     44          1           0       -5.378666    1.766849    1.117643
     45          6           0       -0.058071   -1.572932   -1.342744
     46          6           0       -0.909422   -2.679358   -1.971765
     47          1           0        0.751096   -2.032746   -0.767149
     48          1           0        0.407939   -0.987730   -2.141373
     49          6           0       -0.093629   -3.599270   -2.874798
     50          1           0       -1.384721   -3.269166   -1.178724
     51          1           0       -1.725050   -2.226918   -2.548249
     52          1           0       -0.720648   -4.379953   -3.312000
     53          1           0        0.365097   -3.041394   -3.696660
     54          1           0        0.709732   -4.090622   -2.317503
 ---------------------------------------------------------------------

 SCF Done:  E(RCAM-B3LYP) =  -3257.24839733     A.U. after    1 cycles

 Alpha  occ. eigenvalues -- -482.56913 -61.65086 -56.21861 -56.21835 -56.21827
 Alpha  occ. eigenvalues --  -14.54029 -10.33514 -10.32844 -10.30355 -10.30174
 Alpha  occ. eigenvalues --  -10.29380 -10.28521 -10.26846 -10.26715 -10.26091
 Alpha  occ. eigenvalues --  -10.26038 -10.25706 -10.24923 -10.24498 -10.24183
 Alpha  occ. eigenvalues --  -10.24079 -10.23546  -8.43146  -6.44110  -6.44076
 Alpha  occ. eigenvalues --   -6.44050  -2.56406  -2.56400  -2.56379  -2.56352
 Alpha  occ. eigenvalues --   -2.56349  -1.10706  -0.92363  -0.90278  -0.89527
 Alpha  occ. eigenvalues --   -0.88347  -0.84790  -0.82959  -0.82484  -0.79334
 Alpha  occ. eigenvalues --   -0.75623  -0.74068  -0.73133  -0.69609  -0.67816
 Alpha  occ. eigenvalues --   -0.67030  -0.66234  -0.65729  -0.65556  -0.60552
 Alpha  occ. eigenvalues --   -0.60233  -0.58352  -0.57760  -0.55595  -0.54860
 Alpha  occ. eigenvalues --   -0.53979  -0.52007  -0.51597  -0.50687  -0.49872
 Alpha  occ. eigenvalues --   -0.49131  -0.48915  -0.48625  -0.48356  -0.47872
 Alpha  occ. eigenvalues --   -0.46518  -0.45578  -0.45332  -0.44752  -0.43930
 Alpha  occ. eigenvalues --   -0.43351  -0.42855  -0.42509  -0.42351  -0.41648
 Alpha  occ. eigenvalues --   -0.41170  -0.40717  -0.40371  -0.40227  -0.39710
 Alpha  occ. eigenvalues --   -0.39436  -0.39359  -0.38629  -0.38388  -0.21833
 Alpha  occ. eigenvalues --   -0.21764  -0.21700
 Alpha virt. eigenvalues --    0.08913   0.10128   0.11633   0.12271   0.12693
 Alpha virt. eigenvalues --    0.13528   0.14165   0.15262   0.15600   0.16098
 Alpha virt. eigenvalues --    0.16813   0.17428   0.17542   0.18413   0.18528

 Mulliken charges:
               1
     1  N   -0.407463
     2  C   -0.074751
     3  H    0.200816
     4  H    0.113335
     5  C   -0.049400
     6  H    0.147196
     7  H    0.127661
     8  C   -0.064793
     9  H    0.130992
    10  H    0.121200
    11  C   -0.072419
    12  H    0.106865
    13  H    0.186877
    14  Br  -0.762684
    15  C   -0.194207
    16  C   -0.186553
    17  H    0.155367
    18  H    0.073672
    19  C   -0.315289
    20  H    0.150493
    21  H    0.074128
    22  H    0.104639
    23  H    0.086485
    24  H    0.121488
    25  C   -0.204619
    26  C   -0.186695
    27  H    0.109884
    28  H    0.177655
    29  C   -0.316194
    30  H    0.083872
    31  H    0.097373
    32  H    0.099844
    33  H    0.136294
    34  H    0.104210
    35  C   -0.195825
    36  C   -0.194349
    37  H    0.086216
    38  H    0.114076
    39  C   -0.314700
    40  H    0.089745
    41  H    0.158526
    42  H    0.111517
    43  H    0.105474
    44  H    0.091030
    45  C   -0.202326
    46  C   -0.183753
    47  H    0.112599
    48  H    0.122533
    49  C   -0.315011
    50  H    0.101397
    51  H    0.105589
    52  H    0.114060
    53  H    0.110433
    54  H    0.107487
 Sum of Mulliken charges =  -0.00000

 Dipole moment (field-independent basis, Debye):
    X=             -1.7886    Y=            -12.1530    Z=             -2.7809  Tot=             12.5947
 Quadrupole moment (field-independent basis, Debye-Ang):
   XX=           -127.2739   YY=           -183.6444   ZZ=           -129.4160
   XY=             -6.0608   XZ=             -0.8717   YZ=            -13.1222

  Exact polarizability: 191.358  -3.142 206.628   6.087   7.967 196.123
 Approx polarizability: 218.096   1.485 230.660  -0.930   2.017 220.493

                      1                      2                      3
                      A                      A                      A
 Frequencies --     28.7053                38.1937                40.6679
 Red. masses --      4.3582                 3.9140                 4.3029
 Frc consts  --      0.0021                 0.0034                 0.0042
 IR Inten    --      3.2466                 1.5190                 4.5360

                      4                      5                      6
                      A                      A                      A
 Frequencies --     46.7347                50.8880                59.3323
 Red. masses --      3.2382                 3.2623                 1.8980
 Frc consts  --      0.0042                 0.0050                 0.0039
 IR Inten    --      1.1372                 3.2638                 0.6967

                      7                      8                      9
                      A                      A                      A
 Frequencies --     64.6215                70.1245                83.0591
 Red. masses --      2.7457                 3.4473                 1.5875
 Frc consts  --      0.0068                 0.0100                 0.0065
 IR Inten    --      0.6613                 1.6279                 0.3336

                     10                     11                     12
                      A                      A                      A
 Frequencies --     84.2224                96.9414               111.7140
 Red. masses --      1.6142                 1.6877                 6.4954
 Frc consts  --      0.0067                 0.0093                 0.0478
 IR Inten    --      0.0996                 0.7471                13.2673

                     13                     14                     15
                      A                      A                      A
 Frequencies --    118.2002               128.7412               140.0462
 Red. masses --      3.1574                 2.6689                 2.4370
 Frc consts  --      0.0260                 0.0261                 0.0282
 IR Inten    --      4.3348                 0.7189                 0.4518

                     16                     17                     18
                      A                      A                      A
 Frequencies --    172.7025               182.6469               211.5220
 Red. masses --      3.0155                 2.3646                 2.0622
 Frc consts  --      0.0530                 0.0465                 0.0544
 IR Inten    --      0.2511                 0.4102                 0.5540

                     19                     20                     21
                      A                      A                      A
 Frequencies --    219.0309               246.6579               247.0247
 Red. masses --      2.2039                 1.2253                 1.1445
 Frc consts  --      0.0623                 0.0439                 0.0411
 IR Inten    --      0.6718                 0.2735                 0.0165

                     22                     23                     24
                      A                      A                      A
 Frequencies --    248.4213               252.9823               256.4365
 Red. masses --      1.1820                 1.3244                 2.6406
 Frc consts  --      0.0430                 0.0499                 0.1023
 IR Inten    --      0.1330                 0.0692                 0.3464

                     25                     26                     27
                      A                      A                      A
 Frequencies --    259.2007               276.4457               301.1500
 Red. masses --      2.9345                 2.3239                 2.3879
 Frc consts  --      0.1162                 0.1046                 0.1276
 IR Inten    --      0.0397                 0.2240                 0.2257

                     28                     29                     30
                      A                      A                      A
 Frequencies --    308.3121               353.6441               393.4626
 Red. masses --      2.7515                 2.5621                 3.0468
 Frc consts  --      0.1541                 0.1888                 0.2779
 IR Inten    --      0.5307                 6.6036                 0.0712

                     31                     32                     33
                      A                      A                      A
 Frequencies --    424.4834               438.8908               460.4359
 Red. masses --      2.7285                 2.6724                 2.7112
 Frc consts  --      0.2897                 0.3033                 0.3386
 IR Inten    --      0.1783                 0.7343                 0.6048

                     34                     35                     36
                      A                      A                      A
 Frequencies --    522.0770               571.4586               592.9809
 Red. masses --      2.4336                 3.1586                 3.3573
 Frc consts  --      0.3908                 0.6077                 0.6955
 IR Inten    --      0.4460                 3.0445                 1.7741

                     37                     38                     39
                      A                      A                      A
 Frequencies --    752.8718               754.1822               757.1955
 Red. masses --      1.0809                 1.0881                 1.0852
 Frc consts  --      0.3610                 0.3646                 0.3666
 IR Inten    --      4.8593                 3.5782                24.2110

                     40                     41                     42
                      A                      A                      A
 Frequencies --    764.7044               793.8382               809.9663
 Red. masses --      1.1112                 2.7170                 1.2580
 Frc consts  --      0.3828                 1.0088                 0.4862
 IR Inten    --      9.2071                 0.8635                 6.1354

                     43                     44                     45
                      A                      A                      A
 Frequencies --    820.8927               824.0717               836.5813
 Red. masses --      1.2232                 1.1789                 1.3398
 Frc consts  --      0.4856                 0.4717                 0.5525
 IR Inten    --      7.0901                 1.6217                 3.2918

                     46                     47                     48
                      A                      A                      A
 Frequencies --    911.9369               922.9662               925.7491
 Red. masses --      2.1377                 1.9586                 1.8719
 Frc consts  --      1.0475                 0.9830                 0.9452
 IR Inten    --     22.5797                13.9515                 5.2402

                     49                     50                     51
                      A                      A                      A
 Frequencies --    934.2805               936.2546               947.3468
 Red. masses --      1.7006                 1.7406                 1.4712
 Frc consts  --      0.8746                 0.8989                 0.7779
 IR Inten    --      0.8323                 2.8557                 4.9269

                     52                     53                     54
                      A                      A                      A
 Frequencies --    967.0042               973.6531              1003.5195
 Red. masses --      1.3190                 1.2670                 1.4753
 Frc consts  --      0.7267                 0.7077                 0.8754
 IR Inten    --      4.7882                 2.6787                 1.5752

                     55                     56                     57
                      A                      A                      A
 Frequencies --   1020.9433              1036.1633              1059.6682
 Red. masses --      1.9350                 2.6475                 3.3139
 Frc consts  --      1.1883                 1.6748                 2.1925
 IR Inten    --      2.5694                 1.5423                 1.9859

                     58                     59                     60
                      A                      A                      A
 Frequencies --   1073.9451              1074.2763              1079.9723
 Red. masses --      2.8568                 2.7232                 2.6283
 Frc consts  --      1.9413                 1.8517                 1.8062
 IR Inten    --      4.4863                 8.6080                 5.7489

                     61                     62                     63
                      A                      A                      A
 Frequencies --   1081.6542              1091.3683              1097.4597
 Red. masses --      2.3306                 2.2849                 2.2977
 Frc consts  --      1.6066                 1.6035                 1.6305
 IR Inten    --      3.4806                 7.9476                12.1524

                     64                     65                     66
                      A                      A                      A
 Frequencies --   1100.3210              1145.6351              1149.5551
 Red. masses --      2.2906                 2.2511                 2.0236
 Frc consts  --      1.6339                 1.7408                 1.5756
 IR Inten    --     12.4583                 2.0608                 4.6972

                     67                     68                     69
                      A                      A                      A
 Frequencies --   1156.1929              1177.5429              1187.6710
 Red. masses --      2.0417                 2.3737                 1.7936
 Frc consts  --      1.6080                 1.9392                 1.4907
 IR Inten    --      5.2161                 4.1390                 0.4476

                     70                     71                     72
                      A                      A                      A
 Frequencies --   1206.1991              1223.8487              1227.2710
 Red. masses --      2.2755                 1.9731                 1.9373
 Frc consts  --      1.9506                 1.7412                 1.7192
 IR Inten    --      9.4884                 1.2123                 2.3746

                     73                     74                     75
                      A                      A                      A
 Frequencies --   1274.6867              1278.0059              1296.7395
 Red. masses --      1.2826                 1.2828                 1.2931
 Frc consts  --      1.2279                 1.2345                 1.2811
 IR Inten    --      0.0546                 0.7853                 1.4530

                     76                     77                     78
                      A                      A                      A
 Frequencies --   1304.9319              1315.2833              1319.3962
 Red. masses --      1.3217                 1.2740                 1.3043
 Frc consts  --      1.3260                 1.2986                 1.3378
 IR Inten    --      3.5563                 0.9059                 1.6835

                     79                     80                     81
                      A                      A                      A
 Frequencies --   1324.5313              1336.1840              1344.1315
 Red. masses --      1.3054                 1.2805                 1.1643
 Frc consts  --      1.3493                 1.3470                 1.2394
 IR Inten    --      0.8786                 1.9907                 1.9050

                     82                     83                     84
                      A                      A                      A
 Frequencies --   1352.3084              1356.1040              1359.8679
 Red. masses --      1.0778                 1.0818                 1.1316
 Frc consts  --      1.1613                 1.1721                 1.2329
 IR Inten    --      1.4780                 3.7056                 0.3821

                     85                     86                     87
                      A                      A                      A
 Frequencies --   1365.9598              1371.7341              1392.3897
 Red. masses --      1.0979                 1.1136                 1.1526
 Frc consts  --      1.2070                 1.2346                 1.3166
 IR Inten    --      4.4542                 1.4736                 4.0948

                     88                     89                     90
                      A                      A                      A
 Frequencies --   1403.5767              1413.8830              1418.7772
 Red. masses --      1.2680                 1.4358                 1.3474
 Frc consts  --      1.4718                 1.6911                 1.5980
 IR Inten    --      0.8934                 1.7466                 2.5983

                     91                     92                     93
                      A                      A                      A
 Frequencies --   1421.1590              1429.1676              1440.5860
 Red. masses --      1.3739                 1.3156                 1.3444
 Frc consts  --      1.6349                 1.5833                 1.6438
 IR Inten    --      0.1182                13.7190                 3.8133

                     94                     95                     96
                      A                      A                      A
 Frequencies --   1442.6050              1444.2194              1444.7583
 Red. masses --      1.3624                 1.3070                 1.3002
 Frc consts  --      1.6706                 1.6062                 1.5990
 IR Inten    --      3.2619                 5.0357                 4.5064

                     97                     98                     99
                      A                      A                      A
 Frequencies --   1451.9044              1452.5750              1458.5852
 Red. masses --      1.2554                 1.4107                 1.3757
 Frc consts  --      1.5592                 1.7538                 1.7244
 IR Inten    --      9.8358                 9.7622                 4.2114

                    100                    101                    102
                      A                      A                      A
 Frequencies --   1483.9166              1496.4919              1509.3240
 Red. masses --      1.1719                 1.1009                 1.1001
 Frc consts  --      1.5204                 1.4525                 1.4766
 IR Inten    --      0.7533                 7.7606                 1.2427

                    103                    104                    105
                      A                      A                      A
 Frequencies --   1511.0177              1512.1237              1513.0840
 Red. masses --      1.0718                 1.0658                 1.0683
 Frc consts  --      1.4418                 1.4358                 1.4410
 IR Inten    --      2.2376                 3.7188                 1.1313

                    106                    107                    108
                      A                      A                      A
 Frequencies --   1516.2225              1518.2691              1518.5486
 Red. masses --      1.0709                 1.0710                 1.0706
 Frc consts  --      1.4505                 1.4546                 1.4546
 IR Inten    --      4.2669                 3.5427                 2.5553

                    109                    110                    111
                      A                      A                      A
 Frequencies --   1519.4354              1520.2391              1520.6777
 Red. masses --      1.0494                 1.0650                 1.0401
 Frc consts  --      1.4275                 1.4502                 1.4171
 IR Inten    --      4.3154                 0.7503                 8.8844

                    112                    113                    114
                      A                      A                      A
 Frequencies --   1521.0673              1522.1068              1525.0361
 Red. masses --      1.0411                 1.0601                 1.0801
 Frc consts  --      1.4192                 1.4471                 1.4800
 IR Inten    --      5.4582                 8.6236                 1.5717

                    115                    116                    117
                      A                      A                      A
 Frequencies --   1526.5139              1526.7553              1532.6200
 Red. masses --      1.0768                 1.0776                 1.0977
 Frc consts  --      1.4784                 1.4799                 1.5191
 IR Inten    --      2.4314                 7.9835                17.7030

                    118                    119                    120
                      A                      A                      A
 Frequencies --   1535.9773              1539.8021              1545.2325
 Red. masses --      1.0994                 1.1016                 1.1176
 Frc consts  --      1.5281                 1.5389                 1.5723
 IR Inten    --      6.7811                16.0533                 5.5122

                    121                    122                    123
                      A                      A                      A
 Frequencies --   3010.7138              3043.6413              3048.5806
 Red. masses --      1.0755                 1.0626                 1.0662
 Frc consts  --      5.7440                 5.7995                 5.8384
 IR Inten    --    159.7520                33.5579                25.8313

                    124                    125                    126
                      A                      A                      A
 Frequencies --   3052.5750              3059.5154              3060.1639
 Red. masses --      1.0667                 1.0645                 1.0608
 Frc consts  --      5.8565                 5.8707                 5.8530
 IR Inten    --     63.3820                17.9902                14.9218

                    127                    128                    129
                      A                      A                      A
 Frequencies --   3064.7057              3065.4978              3066.7611
 Red. masses --      1.0414                 1.0425                 1.0636
 Frc consts  --      5.7627                 5.7719                 5.8938
 IR Inten    --     16.2329                37.2992                18.6071

                    130                    131                    132
                      A                      A                      A
 Frequencies --   3069.1082              3072.1648              3073.6955
 Red. masses --      1.0681                 1.0373                 1.0372
 Frc consts  --      5.9279                 5.7683                 5.7736
 IR Inten    --     45.7635                21.4302                24.1897

                    133                    134                    135
                      A                      A                      A
 Frequencies --   3080.6705              3082.0681              3086.2647
 Red. masses --      1.0623                 1.1006                 1.0617
 Frc consts  --      5.9400                 6.1599                 5.9582
 IR Inten    --     58.7726                25.5664                23.8603

                    136                    137                    138
                      A                      A                      A
 Frequencies --   3095.4659              3096.3054              3105.9238
 Red. masses --      1.0833                 1.0840                 1.0693
 Frc consts  --      6.1156                 6.1232                 6.0775
 IR Inten    --     26.9479                 9.5488                17.3200

                    139                    140                    141
                      A                      A                      A
 Frequencies --   3110.9390              3114.1077              3122.3864
 Red. masses --      1.0990                 1.0965                 1.1021
 Frc consts  --      6.2665                 6.2653                 6.3308
 IR Inten    --      0.4963                 0.3188                14.7532

                    142                    143                    144
                      A                      A                      A
 Frequencies --   3129.6715              3133.9223              3136.1726
 Red. masses --      1.0986                 1.1020                 1.1025
 Frc consts  --      6.3402                 6.3767                 6.3890
 IR Inten    --      7.8788                10.3472                22.4037

                    145                    146                    147
                      A                      A                      A
 Frequencies --   3138.7028              3145.4301              3146.2023
 Red. masses --      1.1005                 1.1026                 1.1019
 Frc consts  --      6.3874                 6.4270                 6.4263
 IR Inten    --     25.5898                34.7047                28.2622

                    148                    149                    150
                      A                      A                      A
 Frequencies --   3147.1955              3151.4784              3152.9151
 Red. masses --      1.1030                 1.1020                 1.1036
 Frc consts  --      6.4366                 6.4488                 6.4639
 IR Inten    --     29.9482                26.4388                26.1850

                    151                    152                    153
                      A                      A                      A
 Frequencies --   3155.6840              3156.4189              3156.6815
 Red. masses --      1.1028                 1.1027                 1.1034
 Frc consts  --      6.4702                 6.4730                 6.4780
 IR Inten    --     20.6871                31.9872                10.3396

                    154                    155                    156
                      A                      A                      A
 Frequencies --   3163.6957              3165.4307              3188.2537
 Red. masses --      1.1021                 1.0986                 1.0994
 Frc consts  --      6.4993                 6.4855                 6.5846
 IR Inten    --     24.5543                12.5845                10.0779

 - Thermochemistry -
 -------------------
 Temperature   298.150 Kelvin.  Pressure   1.00000 Atm.
 Atom     1 has atomic number  7 and mass  14.00307

 Molecular mass:   321.20311 amu.
 Principal axes and moments of inertia in atomic units:
                           1         2         3
     Eigenvalues --  7020.596619466.33992**********
           X            0.09063   0.72992  -0.67750
           Y            0.88242  -0.37422  -0.28513
           Z            0.46165   0.57200   0.67801
 This molecule is an asymmetric top.
 Rotational symmetry number  1.
 Warning -- assumption of classical behavior for rotation
           may cause significant error
 Rotational temperatures (Kelvin)      0.01234     0.00915     0.00778
 Rotational constants (GHZ):           0.25706     0.19065     0.16207
 Zero-point vibrational energy    1345239.5 (Joules/Mol)
                                  321.51996 (Kcal/Mol)
 Warning -- explicit consideration of  36 degrees of freedom as
           vibrations may cause significant error
 Vibrational temperatures:     41.30    54.95    58.51    67.24    73.22
          (Kelvin)             85.37    92.98   100.89   119.50   121.18
                              139.48   160.73   170.06   185.23   201.50
                              248.48   262.79   304.33   315.14   354.89
                              355.41   357.42   363.99   368.95   372.93
                              397.74   433.29   443.59   508.82   566.10
                              610.74   631.47   662.46   751.15   822.20
                              853.17  1083.21  1085.10  1089.44  1100.24
                             1142.16  1165.36  1181.08  1185.66  1203.65
                             1312.07  1327.94  1331.95  1344.22  1347.06
                             1363.02  1391.30  1400.87  1443.84  1468.91
                             1490.81  1524.63  1545.17  1545.64  1553.84
                             1556.26  1570.24  1579.00  1583.12  1648.31
                             1653.95  1663.50  1694.22  1708.79  1735.45
                             1760.85  1765.77  1833.99  1838.77  1865.72
                             1877.51  1892.40  1898.32  1905.71  1922.47
                             1933.91  1945.67  1951.13  1956.55  1965.31
                             1973.62  2003.34  2019.43  2034.26  2041.30
                             2044.73  2056.25  2072.68  2075.59  2077.91
                             2078.68  2088.97  2089.93  2098.58  2135.03
                             2153.12  2171.58  2174.02  2175.61  2176.99
                             2181.51  2184.45  2184.85  2186.13  2187.28
                             2187.92  2188.48  2189.97  2194.19  2196.31
                             2196.66  2205.10  2209.93  2215.43  2223.24
                             4331.75  4379.12  4386.23  4391.97  4401.96
                             4402.89  4409.43  4410.57  4412.39  4415.76
                             4420.16  4422.36  4432.40  4434.41  4440.45
                             4453.68  4454.89  4468.73  4475.95  4480.51
                             4492.42  4502.90  4509.02  4512.25  4515.89
                             4525.57  4526.68  4528.11  4534.27  4536.34
                             4540.33  4541.38  4541.76  4551.85  4554.35
                             4587.19

 Zero-point correction=                           0.512375 (Hartree/Particle)
 Thermal correction to Energy=                    0.537294
 Thermal correction to Enthalpy=                  0.538238
 Thermal correction to Gibbs Free Energy=         0.455117
 Sum of electronic and zero-point Energies=          -3256.736023
 Sum of electronic and thermal Energies=             -3256.711104
 Sum of electronic and thermal Enthalpies=           -3256.710159
 Sum of electronic and thermal Free Energies=        -3256.793281

                     E (Thermal)             CV                S
                      KCal/Mol        Cal/Mol-Kelvin    Cal/Mol-Kelvin
 Total                  337.157             88.239            174.943
 Electronic               0.000              0.000              0.000
 Translational            0.889              2.981             43.196
 Rotational               0.889              2.981             34.958
 Vibrational            335.380             82.278             96.789
 Vibration     1          0.593              1.984              5.917
 Vibration     2          0.594              1.982              5.351
 Vibration     3          0.594              1.981              5.226
 Vibration     4          0.595              1.979              4.951
 Vibration     5          0.595              1.977              4.783
 Vibration     6          0.597              1.974              4.479
 Vibration     7          0.597              1.971              4.311
 Vibration     8          0.598              1.968              4.150
 Vibration     9          0.600              1.961              3.817
 Vibration    10          0.601              1.960              3.790
 Vibration    11          0.603              1.951              3.515
 Vibration    12          0.607              1.940              3.239
 Vibration    13          0.608              1.934              3.130
 Vibration    14          0.611              1.925              2.965
 Vibration    15          0.615              1.913              2.803
 Vibration    16          0.626              1.876              2.406
 Vibration    17          0.630              1.863              2.301
 Vibration    18          0.643              1.823              2.030
 Vibration    19          0.647              1.812              1.967
 Vibration    20          0.661              1.768              1.754
 Vibration    21          0.661              1.768              1.752
 Vibration    22          0.662              1.765              1.742
 Vibration    23          0.664              1.758              1.710
 Vibration    24          0.666              1.752              1.686
 Vibration    25          0.668              1.747              1.667
 Vibration    26          0.678              1.717              1.556
 Vibration    27          0.693              1.672              1.411
 Vibration    28          0.698              1.658              1.371
 Vibration    29          0.730              1.568              1.150
 Vibration    30          0.761              1.484              0.987
 Vibration    31          0.786              1.417              0.877
 Vibration    32          0.799              1.385              0.830
 Vibration    33          0.818              1.338              0.765
 Vibration    34          0.877              1.201              0.605
 Vibration    35          0.928              1.093              0.501
 Vibration    36          0.951              1.047              0.462

 Optimization completed.
    -- Stationary point found.
 Normal termination of Gaussian 16 at Thu Sep 26 10:59:05 2019.
