 Gaussian 16, Revision A.03,
 Gaussian 16:  ES64L-G16RevA.03 25-Dec-2016

 ----------------------------------------------------------------------
 # opt=(calcall,tight,cartesian) freq cam-b3lyp/gen nosymm scf=(qc,maxc
 ycle=1024,vshift=100) pseudo=read
 ----------------------------------------------------------------------

 ---------------
 Zn_PO_opt_freq2
 ---------------
 Symbolic Z-matrix:
 Charge =  0 Multiplicity = 1

 SCF Done:  E(RCAM-B3LYP) =  -3700.28480415     a.u. after    9 cycles
 Optimization completed.
    -- Stationary point found.
 Normal termination of Gaussian 16 at Sat Oct  5 17:09:17 2019.

 ----------------------------------------------------------------------
 #N Geom=AllCheck Guess=TCheck SCRF=Check GenChk RCAM-B3LYP/ChkBas Freq
 ----------------------------------------------------------------------

 Structure from the checkpoint file:  "Zn_PO_opt_freq2.chk"
 ---------------
 Zn_PO_opt_freq2
 ---------------
 Charge =  0 Multiplicity = 1

                          Input orientation:
 ---------------------------------------------------------------------
 Center     Atomic      Atomic             Coordinates (Angstroms)
 Number     Number       Type             X           Y           Z
 ---------------------------------------------------------------------
      1          3           0       -0.656174   -5.038394   -3.457440
      2          7           0       -0.282792   -3.675582   -2.194684
      3          6           0       -0.889238   -4.075176   -1.039304
      4         17           0       -1.635633   -5.639476   -0.998283
      5          7           0        2.328228    2.599049   -2.419433
      6          6           0        3.259066    1.625470   -2.292878
      7         17           0        4.849035    1.760081   -2.951541
      8          7           0       -3.327483    2.075083    1.065729
      9          6           0       -3.666908    1.759812   -0.205944
     10         17           0       -5.160542    2.246895   -0.921231
     11         30           0        0.070800   -0.053516   -0.128424
     12          7           0       -0.102263   -2.053288   -0.668749
     13          6           0       -0.787533   -3.090935   -0.101042
     14         17           0       -1.362759   -3.057846    1.510252
     15          7           0       -1.671536    0.864014    0.133164
     16          6           0       -2.669191    1.023170   -0.787056
     17         17           0       -2.555832    0.355122   -2.375792
     18          7           0        1.448600    0.872817   -1.257675
     19          6           0        2.740869    0.569882   -1.588394
     20         17           0        3.481400   -0.929856   -1.141096
     21          6           0        0.173165   -2.451041   -1.914860
     22          1           0        0.711574   -1.832415   -2.618693
     23          6           0       -2.139099    1.523649    1.224964
     24          1           0       -1.569459    1.577572    2.143566
     25          6           0        1.272009    2.111765   -1.792723
     26          1           0        0.330071    2.637701   -1.704111
     27          6           0        2.041941   -0.773512    2.335218
     28          6           0        2.140709    0.673520    2.139765
     29          8           0        0.915807   -0.024114    1.809092
     30          6           0        1.816975   -1.392456    3.680619
     31          1           0        2.676453    1.070133    1.282118
     32          1           0        2.037728    1.335013    2.995231
     33          1           0        1.192440   -2.284540    3.590595
     34          1           0        1.324213   -0.688134    4.354019
     35          1           0        2.774708   -1.687281    4.118424
     36          1           0        2.513729   -1.398458    1.580184
 ---------------------------------------------------------------------

 SCF Done:  E(RCAM-B3LYP) =  -3700.28480415     a.u. after    1 cycles

 Alpha  occ. eigenvalues -- -101.66788-101.63659-101.60998-101.59469-101.57890
 Alpha  occ. eigenvalues -- -101.56831 -19.29016 -14.45349 -14.45251 -14.40852
 Alpha  occ. eigenvalues --  -14.39944 -14.36519 -14.35636 -10.36841 -10.36679
 Alpha  occ. eigenvalues --  -10.35421 -10.34788 -10.34451 -10.31320 -10.30176
 Alpha  occ. eigenvalues --  -10.30170 -10.29017 -10.28254 -10.28033 -10.27526
 Alpha  occ. eigenvalues --   -9.59998  -9.56840  -9.54169  -9.52647  -9.51155
 Alpha  occ. eigenvalues --   -9.50096  -7.36398  -7.35502  -7.35384  -7.33315
 Alpha  occ. eigenvalues --   -7.32255  -7.32246  -7.30589  -7.29624  -7.29606
 Alpha  occ. eigenvalues --   -7.29074  -7.28099  -7.28073  -7.27592  -7.26590
 Alpha  occ. eigenvalues --   -7.26571  -7.26533  -7.25529  -7.25514  -2.16905
 Alpha  occ. eigenvalues --   -1.20240  -1.14134  -1.07684  -1.06789  -1.01648
 Alpha  occ. eigenvalues --   -0.99323  -0.95298  -0.94453  -0.94089  -0.93460
 Alpha  occ. eigenvalues --   -0.92350  -0.88415  -0.87365  -0.86490  -0.83008
 Alpha  occ. eigenvalues --   -0.78888  -0.76771  -0.75816  -0.71294  -0.71018
 Alpha  occ. eigenvalues --   -0.69532  -0.69224  -0.69126  -0.68519  -0.68442
 Alpha  occ. eigenvalues --   -0.67475  -0.64126  -0.63109  -0.62577  -0.61930
 Alpha  occ. eigenvalues --   -0.61334  -0.60360  -0.57882  -0.56253  -0.55938
 Alpha  occ. eigenvalues --   -0.54926  -0.54261  -0.52948  -0.52363  -0.50906
 Alpha  occ. eigenvalues --   -0.49925  -0.48933  -0.48539  -0.48392  -0.47579
 Alpha  occ. eigenvalues --   -0.47382  -0.46678  -0.46573  -0.45784  -0.45401
 Alpha  occ. eigenvalues --   -0.45052  -0.44740  -0.44240  -0.41840  -0.41533
 Alpha  occ. eigenvalues --   -0.40941  -0.40689  -0.40533  -0.39624  -0.39316
 Alpha  occ. eigenvalues --   -0.38793  -0.38688  -0.37762  -0.37682  -0.36560
 Alpha  occ. eigenvalues --   -0.35234  -0.34222  -0.31500  -0.30880  -0.30632
 Alpha  occ. eigenvalues --   -0.30556  -0.29533  -0.25082  -0.23945
 Alpha virt. eigenvalues --   -0.06423  -0.00689   0.00082   0.04015   0.04439
 Alpha virt. eigenvalues --    0.04723   0.06413   0.07107   0.07991   0.08537
 Alpha virt. eigenvalues --    0.09467   0.09924   0.10179   0.10901   0.11214

 Mulliken charges:
               1
     1  Li   0.624925
     2  N   -0.501030
     3  C    0.060507
     4  Cl   0.055968
     5  N   -0.363099
     6  C    0.014032
     7  Cl  -0.020301
     8  N   -0.363699
     9  C    0.011544
    10  Cl  -0.023561
    11  Zn   1.042508
    12  N   -0.545679
    13  C    0.054726
    14  Cl   0.052610
    15  N   -0.597509
    16  C    0.042422
    17  Cl  -0.023340
    18  N   -0.599298
    19  C    0.009991
    20  Cl  -0.035972
    21  C    0.238885
    22  H    0.160651
    23  C    0.174917
    24  H    0.099939
    25  C    0.174468
    26  H    0.129472
    27  C    0.128113
    28  C   -0.012421
    29  O   -0.522283
    30  C   -0.329623
    31  H    0.171432
    32  H    0.144226
    33  H    0.140004
    34  H    0.128808
    35  H    0.128632
    36  H    0.149034
 Sum of Mulliken charges =  -0.00000

 Dipole moment (field-independent basis, Debye):
    X=              3.2505    Y=            -17.5170    Z=             -1.3878  Tot=             17.8700
 Quadrupole moment (field-independent basis, Debye-Ang):
   XX=           -241.0777   YY=           -151.1026   ZZ=           -161.4908
   XY=             11.2413   XZ=             30.2136   YZ=             57.2179

  Exact polarizability: 238.637  -2.962 232.039 -15.997  -0.101 222.961
 Approx polarizability: 270.763  -9.079 272.099 -20.123   3.382 276.504

                      1                      2                      3
                      A                      A                      A
 Frequencies --      9.7949                11.7267                16.9902
 Red. masses --     17.9322                19.6704                 7.4251
 Frc consts  --      0.0010                 0.0016                 0.0013
 IR Inten    --      0.1439                 0.7762                 0.2353

                      4                      5                      6
                      A                      A                      A
 Frequencies --     22.2052                34.0490                35.6759
 Red. masses --      5.4996                 9.3139                 8.5075
 Frc consts  --      0.0016                 0.0064                 0.0064
 IR Inten    --      1.5350                 0.5443                 0.3087

                      7                      8                      9
                      A                      A                      A
 Frequencies --     42.1213                50.7163                61.8002
 Red. masses --      3.7896                14.0590                19.3148
 Frc consts  --      0.0040                 0.0213                 0.0435
 IR Inten    --      0.2828                 0.5111                 1.3770

                     10                     11                     12
                      A                      A                      A
 Frequencies --     67.0218                72.3970                75.5673
 Red. masses --     18.0530                11.1865                21.4073
 Frc consts  --      0.0478                 0.0345                 0.0720
 IR Inten    --      0.3693                 0.3923                 0.3450

                     13                     14                     15
                      A                      A                      A
 Frequencies --    103.4550               116.9829               128.2727
 Red. masses --      6.3790                 5.5935                 4.2310
 Frc consts  --      0.0402                 0.0451                 0.0410
 IR Inten    --      3.6839                 4.0256                 0.7571

                     16                     17                     18
                      A                      A                      A
 Frequencies --    149.2115               151.6358               153.3581
 Red. masses --     33.2520                33.7427                31.0213
 Frc consts  --      0.4362                 0.4571                 0.4299
 IR Inten    --      0.8168                 0.5308                 0.6507

                     19                     20                     21
                      A                      A                      A
 Frequencies --    162.0810               176.7936               184.5307
 Red. masses --     12.7021                 9.6260                 9.7877
 Frc consts  --      0.1966                 0.1773                 0.1964
 IR Inten    --      0.6143                 2.9210                 7.1219

                     22                     23                     24
                      A                      A                      A
 Frequencies --    209.4205               210.8703               226.8331
 Red. masses --     16.2900                 1.3327                10.7632
 Frc consts  --      0.4209                 0.0349                 0.3263
 IR Inten    --     22.7171                 6.4541                25.9726

                     25                     26                     27
                      A                      A                      A
 Frequencies --    233.2974               264.9737               267.5057
 Red. masses --      5.2209                12.4727                 9.1819
 Frc consts  --      0.1674                 0.5160                 0.3871
 IR Inten    --     19.6537                 4.3042                 2.6730

                     28                     29                     30
                      A                      A                      A
 Frequencies --    269.4513               270.3592               272.0953
 Red. masses --     10.0933                 7.7698                11.5692
 Frc consts  --      0.4318                 0.3346                 0.5047
 IR Inten    --      3.2093                 2.6984                10.7758

                     31                     32                     33
                      A                      A                      A
 Frequencies --    275.0359               334.4237               337.6315
 Red. masses --     12.5917                26.6879                26.6637
 Frc consts  --      0.5612                 1.7586                 1.7908
 IR Inten    --      7.1110                 2.1853                 3.4423

                     34                     35                     36
                      A                      A                      A
 Frequencies --    339.3372               401.1663               440.5148
 Red. masses --     28.3402                 2.1609                 3.1023
 Frc consts  --      1.9227                 0.2049                 0.3547
 IR Inten    --     11.6851                 3.7788                28.9223

                     37                     38                     39
                      A                      A                      A
 Frequencies --    519.7737               522.0112               525.5799
 Red. masses --     11.6458                11.5219                11.7692
 Frc consts  --      1.8537                 1.8498                 1.9155
 IR Inten    --      0.6421                 1.5274                 0.6699

                     40                     41                     42
                      A                      A                      A
 Frequencies --    567.0554               576.2656               579.0275
 Red. masses --      5.5751                 6.5240                 6.6730
 Frc consts  --      1.0562                 1.2765                 1.3182
 IR Inten    --      4.2088                 4.2371                 5.2393

                     43                     44                     45
                      A                      A                      A
 Frequencies --    668.4227               673.7656               685.1986
 Red. masses --      6.1103                 6.1974                 7.8334
 Frc consts  --      1.6085                 1.6576                 2.1669
 IR Inten    --      4.2257                 5.9409                 7.6156

                     46                     47                     48
                      A                      A                      A
 Frequencies --    701.1932               703.0578               711.9163
 Red. masses --     11.1493                 9.0803                10.9295
 Frc consts  --      3.2298                 2.6444                 3.2637
 IR Inten    --      3.4736                 5.2942                 2.7236

                     49                     50                     51
                      A                      A                      A
 Frequencies --    781.6191               838.7200               859.9315
 Red. masses --      4.0692                 1.3421                 1.3393
 Frc consts  --      1.4647                 0.5562                 0.5835
 IR Inten    --     14.3168                 8.2738                 7.1675

                     52                     53                     54
                      A                      A                      A
 Frequencies --    867.5945               877.4219               928.4522
 Red. masses --      3.0328                 1.3588                 1.2710
 Frc consts  --      1.3450                 0.6164                 0.6455
 IR Inten    --     85.5398                 8.5916                14.4609

                     55                     56                     57
                      A                      A                      A
 Frequencies --    939.0400               943.0243               946.9079
 Red. masses --      6.6368                 7.0875                 7.6352
 Frc consts  --      3.4481                 3.7135                 4.0335
 IR Inten    --     27.6827                14.1603                26.4049

                     58                     59                     60
                      A                      A                      A
 Frequencies --    990.3967              1063.1068              1093.3897
 Red. masses --      2.3323                 1.2661                 4.4993
 Frc consts  --      1.3479                 0.8431                 3.1692
 IR Inten    --     30.9787                30.0419               128.8826

                     61                     62                     63
                      A                      A                      A
 Frequencies --   1095.7871              1098.6128              1143.4757
 Red. masses --      4.9978                 5.0053                 1.4232
 Frc consts  --      3.5358                 3.5594                 1.0964
 IR Inten    --    148.5325               147.7268                13.0670

                     64                     65                     66
                      A                      A                      A
 Frequencies --   1188.1214              1194.4122              1201.0172
 Red. masses --      1.4780                 1.4898                 5.7628
 Frc consts  --      1.2293                 1.2522                 4.8976
 IR Inten    --     16.8023                 1.1525                25.9261

                     67                     68                     69
                      A                      A                      A
 Frequencies --   1217.6533              1226.8544              1227.9021
 Red. masses --      1.5121                 3.3569                 3.7609
 Frc consts  --      1.3210                 2.9770                 3.3409
 IR Inten    --      5.0204                28.3364                55.5669

                     70                     71                     72
                      A                      A                      A
 Frequencies --   1249.3094              1255.0801              1270.2253
 Red. masses --      2.7894                 2.8050                 2.2417
 Frc consts  --      2.5651                 2.6033                 2.1311
 IR Inten    --    102.0662                79.2967                11.0560

                     73                     74                     75
                      A                      A                      A
 Frequencies --   1318.5969              1333.9633              1343.4334
 Red. masses --      1.4748                11.5216                12.1205
 Frc consts  --      1.5108                12.0795                12.8885
 IR Inten    --      9.1433                31.1338                22.5409

                     76                     77                     78
                      A                      A                      A
 Frequencies --   1358.7109              1425.4322              1470.0898
 Red. masses --      7.4607                 1.2601                 2.1421
 Frc consts  --      8.1149                 1.5086                 2.7276
 IR Inten    --     41.6700                 3.1644                63.7593

                     79                     80                     81
                      A                      A                      A
 Frequencies --   1472.4823              1475.9304              1500.1080
 Red. masses --      1.7694                 2.9481                 1.0504
 Frc consts  --      2.2603                 3.7837                 1.3926
 IR Inten    --     54.5372                46.7588                 7.4479

                     82                     83                     84
                      A                      A                      A
 Frequencies --   1502.1963              1516.3217              1555.4296
 Red. masses --      3.3809                 1.0687                 1.5782
 Frc consts  --      4.4951                 1.4478                 2.2497
 IR Inten    --     52.8490                 4.8984                12.0963

                     85                     86                     87
                      A                      A                      A
 Frequencies --   1562.9431              1569.5393              1604.3667
 Red. masses --     11.9320                11.8657                11.8730
 Frc consts  --     17.1732                17.2222                18.0060
 IR Inten    --     29.2563                29.4800                39.6665

                     88                     89                     90
                      A                      A                      A
 Frequencies --   3083.3147              3160.8380              3161.4435
 Red. masses --      1.0362                 1.0545                 1.1017
 Frc consts  --      5.8040                 6.2074                 6.4873
 IR Inten    --      6.9003                 9.2693                 5.7643

                     91                     92                     93
                      A                      A                      A
 Frequencies --   3170.2709              3195.5942              3262.8519
 Red. masses --      1.1031                 1.0922                 1.1225
 Frc consts  --      6.5322                 6.5713                 7.0410
 IR Inten    --      4.9328                 5.3683                 1.1150

                     94                     95                     96
                      A                      A                      A
 Frequencies --   3265.0583              3268.5400              3295.1198
 Red. masses --      1.0952                 1.0962                 1.0985
 Frc consts  --      6.8790                 6.8999                 7.0273
 IR Inten    --      7.2544                 1.9524                 1.5148

 - Thermochemistry -
 -------------------
 Temperature   298.150 Kelvin.  Pressure   1.00000 Atm.
 Atom     1 has atomic number  3 and mass   7.01600

 Molecular mass:   533.84205 amu.
 Principal axes and moments of inertia in atomic units:
                           1         2         3
     Eigenvalues --  ******************************
           X            0.94614  -0.29402   0.13553
           Y            0.27755   0.95214   0.12803
           Z           -0.16668  -0.08352   0.98247
 This molecule is an asymmetric top.
 Rotational symmetry number  1.
 Warning -- assumption of classical behavior for rotation
           may cause significant error
 Rotational temperatures (Kelvin)      0.00583     0.00478     0.00370
 Rotational constants (GHZ):           0.12143     0.09950     0.07714
 Zero-point vibrational energy     538219.1 (Joules/Mol)
                                  128.63744 (Kcal/Mol)
 Warning -- explicit consideration of  42 degrees of freedom as
           vibrations may cause significant error
 Vibrational temperatures:     14.09    16.87    24.45    31.95    48.99
          (Kelvin)             51.33    60.60    72.97    88.92    96.43
                              104.16   108.72   148.85   168.31   184.56
                              214.68   218.17   220.65   233.20   254.37
                              265.50   301.31   303.40   326.36   335.66
                              381.24   384.88   387.68   388.99   391.48
                              395.72   481.16   485.78   488.23   577.19
                              633.80   747.84   751.06   756.19   815.87
                              829.12   833.09   961.71   969.40   985.85
                             1008.86  1011.54  1024.29  1124.58  1206.73
                             1237.25  1248.27  1262.41  1335.84  1351.07
                             1356.80  1362.39  1424.96  1529.57  1573.14
                             1576.59  1580.66  1645.21  1709.44  1718.49
                             1728.00  1751.93  1765.17  1766.68  1797.48
                             1805.78  1827.57  1897.17  1919.28  1932.90
                             1954.88  2050.88  2115.13  2118.57  2123.53
                             2158.32  2161.33  2181.65  2237.92  2248.73
                             2258.22  2308.33  4436.20  4547.74  4548.61
                             4561.31  4597.75  4694.52  4697.69  4702.70
                             4740.94

 Zero-point correction=                           0.204997 (Hartree/Particle)
 Thermal correction to Energy=                    0.233254
 Thermal correction to Enthalpy=                  0.234198
 Thermal correction to Gibbs Free Energy=         0.137402
 Sum of electronic and zero-point Energies=          -3700.079807
 Sum of electronic and thermal Energies=             -3700.051550
 Sum of electronic and thermal Enthalpies=           -3700.050606
 Sum of electronic and thermal Free Energies=        -3700.147402

                     E (Thermal)             CV                S
                      KCal/Mol        Cal/Mol-Kelvin    Cal/Mol-Kelvin
 Total                  146.369             93.566            203.725
 Electronic               0.000              0.000              0.000
 Translational            0.889              2.981             44.711
 Rotational               0.889              2.981             37.087
 Vibrational            144.592             87.605            121.928
 Vibration     1          0.593              1.987              8.052
 Vibration     2          0.593              1.987              7.695
 Vibration     3          0.593              1.986              6.958
 Vibration     4          0.593              1.985              6.427
 Vibration     5          0.594              1.983              5.578
 Vibration     6          0.594              1.982              5.486
 Vibration     7          0.595              1.980              5.157
 Vibration     8          0.595              1.977              4.789
 Vibration     9          0.597              1.973              4.399
 Vibration    10          0.598              1.970              4.239
 Vibration    11          0.598              1.967              4.087
 Vibration    12          0.599              1.965              4.003
 Vibration    13          0.605              1.946              3.388
 Vibration    14          0.608              1.935              3.150
 Vibration    15          0.611              1.925              2.972
 Vibration    16          0.618              1.904              2.682
 Vibration    17          0.619              1.901              2.652
 Vibration    18          0.619              1.899              2.630
 Vibration    19          0.622              1.889              2.525
 Vibration    20          0.628              1.871              2.362
 Vibration    21          0.631              1.861              2.282
 Vibration    22          0.642              1.826              2.049
 Vibration    23          0.643              1.824              2.036
 Vibration    24          0.650              1.800              1.904
 Vibration    25          0.654              1.790              1.853
 Vibration    26          0.671              1.737              1.629
 Vibration    27          0.673              1.733              1.612
 Vibration    28          0.674              1.729              1.600
 Vibration    29          0.674              1.728              1.594
 Vibration    30          0.675              1.725              1.583
 Vibration    31          0.677              1.719              1.564
 Vibration    32          0.716              1.607              1.239
 Vibration    33          0.718              1.600              1.223
 Vibration    34          0.719              1.597              1.215
 Vibration    35          0.767              1.468              0.958
 Vibration    36          0.800              1.382              0.825
 Vibration    37          0.875              1.206              0.610
 Vibration    38          0.877              1.201              0.605
 Vibration    39          0.881              1.193              0.597
 Vibration    40          0.923              1.103              0.510
 Vibration    41          0.933              1.083              0.492
 Vibration    42          0.936              1.077              0.487

 Optimization completed.
    -- Stationary point found.
 Normal termination of Gaussian 16 at Sat Oct  5 17:22:01 2019.
