 Gaussian 16, Revision A.03,
 Gaussian 16:  ES64L-G16RevA.03 25-Dec-2016

 ----------------------------------------------------------------------
 # opt=(calcall,tight,cartesian) freq cam-b3lyp/gen nosymm scf=(qc,maxc
 ycle=1024,vshift=100) pseudo=read
 ----------------------------------------------------------------------

 -------------------
 Co_cat_opt_freq_qua
 -------------------
 Symbolic Z-matrix:
 Charge =  0 Multiplicity = 4

 SCF Done:  E(UCAM-B3LYP) =  -3586.69153698     a.u. after   63 cycles
 Optimization completed.
    -- Stationary point found.
 Normal termination of Gaussian 16 at Fri Oct  4 12:17:48 2019.

 ----------------------------------------------------------------------
 #N Geom=AllCheck Guess=TCheck SCRF=Check GenChk UCAM-B3LYP/ChkBas Freq
 ----------------------------------------------------------------------

 Structure from the checkpoint file:  "Co_cat_opt_freq_qua.chk"
 -------------------
 Co_cat_opt_freq_qua
 -------------------
 Charge =  0 Multiplicity = 4

                          Input orientation:
 ---------------------------------------------------------------------
 Center     Atomic      Atomic             Coordinates (Angstroms)
 Number     Number       Type             X           Y           Z
 ---------------------------------------------------------------------
      1          3           0       -0.658759   -5.046055   -3.464522
      2          7           0       -0.328360   -3.614087   -2.281904
      3          6           0       -0.820734   -4.016552   -1.072646
      4         17           0       -1.439421   -5.627488   -0.930681
      5          7           0        2.258511    2.612686   -2.483143
      6          6           0        3.218241    2.005381   -1.735469
      7         17           0        4.884612    2.426423   -1.847143
      8          7           0       -3.379063    2.028570    1.064048
      9          6           0       -3.812825    1.620937   -0.156409
     10         17           0       -5.372191    2.017942   -0.768747
     11          7           0       -0.168036   -1.933426   -0.827469
     12          6           0       -0.728648   -2.996708   -0.173275
     13         17           0       -1.189677   -2.936740    1.469591
     14          7           0       -1.766162    0.815287    0.077907
     15          6           0       -2.841496    0.882913   -0.769645
     16         17           0       -2.802889    0.143272   -2.327996
     17          7           0        1.306639    1.053753   -1.171248
     18          6           0        2.654054    1.056558   -0.928920
     19         17           0        3.352868   -0.012197    0.227170
     20          6           0        0.052410   -2.353682   -2.078348
     21          1           0        0.492535   -1.723640   -2.838318
     22          6           0       -2.166019    1.535024    1.164056
     23          1           0       -1.525263    1.678306    2.024323
     24          6           0        1.142432    2.021910   -2.119733
     25          1           0        0.166043    2.275857   -2.511984
     26         27           0       -0.090154    0.011198   -0.375478
 ---------------------------------------------------------------------

 SCF Done:  E(UCAM-B3LYP) =  -3586.69153698     a.u. after    1 cycles

 Alpha  occ. eigenvalues -- -101.67585-101.64408-101.61484-101.60862-101.58403
 Alpha  occ. eigenvalues -- -101.58222 -14.47193 -14.46459 -14.42550 -14.42454
 Alpha  occ. eigenvalues --  -14.37601 -14.37508 -10.37917 -10.37803 -10.36231
 Alpha  occ. eigenvalues --  -10.32094 -10.31889 -10.31023 -10.30835 -10.29646
 Alpha  occ. eigenvalues --  -10.29455  -9.60795  -9.57593  -9.54658  -9.54045
 Alpha  occ. eigenvalues --   -9.51668  -9.51486  -7.37201  -7.36295  -7.36178
 Alpha  occ. eigenvalues --   -7.34078  -7.33005  -7.32990  -7.31086  -7.30481
 Alpha  occ. eigenvalues --   -7.30119  -7.30077  -7.29497  -7.29461  -7.28111
 Alpha  occ. eigenvalues --   -7.27930  -7.27100  -7.27078  -7.26919  -7.26897
 Alpha  occ. eigenvalues --   -3.98013  -2.68836  -2.68797  -2.65327  -2.17689
 Alpha  occ. eigenvalues --   -1.15509  -1.08959  -1.08743  -1.02754  -1.00341
 Alpha  occ. eigenvalues --   -0.96179  -0.95811  -0.95556  -0.94256  -0.93972
 Alpha  occ. eigenvalues --   -0.89303  -0.89053  -0.84269  -0.77851  -0.77626
 Alpha  occ. eigenvalues --   -0.71862  -0.69442  -0.65623  -0.65257  -0.63841
 Alpha  occ. eigenvalues --   -0.62712  -0.62530  -0.58493  -0.57967  -0.57374
 Alpha  occ. eigenvalues --   -0.55418  -0.54553  -0.53451  -0.52550  -0.51711
 Alpha  occ. eigenvalues --   -0.50807  -0.50525  -0.49725  -0.49245  -0.47802
 Alpha  occ. eigenvalues --   -0.47663  -0.46980  -0.46730  -0.46096  -0.45584
 Alpha  occ. eigenvalues --   -0.45391  -0.45118  -0.44582  -0.41491  -0.41237
 Alpha  occ. eigenvalues --   -0.41234  -0.40888  -0.40724  -0.39487  -0.39264
 Alpha  occ. eigenvalues --   -0.39055  -0.38286  -0.37277  -0.35741  -0.35382
 Alpha  occ. eigenvalues --   -0.32393  -0.32246  -0.31913  -0.31071  -0.31048
 Alpha  occ. eigenvalues --   -0.25895  -0.25659
 Alpha virt. eigenvalues --   -0.07047  -0.01411  -0.00673   0.01881   0.03299
 Alpha virt. eigenvalues --    0.03320   0.03664   0.05241   0.05819   0.06339
 Alpha virt. eigenvalues --    0.07131   0.07959   0.08902   0.09323   0.09919

  Beta  occ. eigenvalues -- -101.67584-101.64407-101.61480-101.60859-101.58400
  Beta  occ. eigenvalues -- -101.58220 -14.47072 -14.46450 -14.42372 -14.42290
  Beta  occ. eigenvalues --  -14.37572 -14.37487 -10.37909 -10.37795 -10.36216
  Beta  occ. eigenvalues --  -10.32113 -10.31895 -10.30983 -10.30801 -10.29612
  Beta  occ. eigenvalues --  -10.29432  -9.60794  -9.57592  -9.54654  -9.54042
  Beta  occ. eigenvalues --   -9.51665  -9.51484  -7.37199  -7.36294  -7.36176
  Beta  occ. eigenvalues --   -7.34076  -7.33003  -7.32989  -7.31082  -7.30477
  Beta  occ. eigenvalues --   -7.30107  -7.30075  -7.29489  -7.29460  -7.28111
  Beta  occ. eigenvalues --   -7.27928  -7.27092  -7.27076  -7.26913  -7.26894
  Beta  occ. eigenvalues --   -3.83001  -2.52009  -2.51457  -2.51384  -2.17688
  Beta  occ. eigenvalues --   -1.15408  -1.08743  -1.08547  -1.02672  -1.00320
  Beta  occ. eigenvalues --   -0.96098  -0.95727  -0.95465  -0.94121  -0.93861
  Beta  occ. eigenvalues --   -0.89156  -0.88918  -0.84216  -0.77762  -0.77533
  Beta  occ. eigenvalues --   -0.71715  -0.69335  -0.65334  -0.65010  -0.63574
  Beta  occ. eigenvalues --   -0.62561  -0.62340  -0.57667  -0.57205  -0.56950
  Beta  occ. eigenvalues --   -0.55326  -0.53683  -0.50926  -0.50657  -0.50287
  Beta  occ. eigenvalues --   -0.49504  -0.49121  -0.47571  -0.47181  -0.46916
  Beta  occ. eigenvalues --   -0.46471  -0.45804  -0.45108  -0.44856  -0.44560
  Beta  occ. eigenvalues --   -0.41509  -0.41239  -0.40812  -0.40593  -0.40296
  Beta  occ. eigenvalues --   -0.39559  -0.39291  -0.38723  -0.38367  -0.37451
  Beta  occ. eigenvalues --   -0.35884  -0.35709  -0.32524  -0.32366  -0.31861
  Beta  occ. eigenvalues --   -0.31793  -0.31124  -0.25898  -0.25598
  Beta virt. eigenvalues --   -0.07051  -0.05077  -0.04837  -0.04436  -0.01309
  Beta virt. eigenvalues --   -0.00634   0.02790   0.03339   0.03655   0.03806
  Beta virt. eigenvalues --    0.05374   0.06216   0.06409   0.07616   0.08300

 Mulliken charges and spin densities:
               1          2
     1  Li   0.630975   0.000462
     2  N   -0.503487   0.003322
     3  C    0.067376   0.004007
     4  Cl   0.065883   0.001298
     5  N   -0.361283   0.008461
     6  C    0.018130   0.019116
     7  Cl  -0.006579   0.002486
     8  N   -0.358632   0.012099
     9  C    0.023755   0.023402
    10  Cl  -0.004297   0.002345
    11  N   -0.533377   0.047535
    12  C    0.059664   0.001454
    13  Cl   0.070003   0.000875
    14  N   -0.579800   0.087701
    15  C    0.058209  -0.013778
    16  Cl  -0.012010   0.003324
    17  N   -0.588754   0.082756
    18  C    0.043080  -0.008925
    19  Cl   0.001837   0.002179
    20  C    0.256527   0.006707
    21  H    0.161285   0.000542
    22  C    0.189330   0.017260
    23  H    0.115471  -0.000668
    24  C    0.196929   0.011691
    25  H    0.124884  -0.000154
    26  Co   0.864882   2.684505
 Sum of Mulliken charges =  -0.00000   3.00000

 Dipole moment (field-independent basis, Debye):
    X=             -0.4396    Y=            -17.6838    Z=             -6.4638  Tot=             18.8332
 Quadrupole moment (field-independent basis, Debye-Ang):
   XX=           -219.9470   YY=           -126.4167   ZZ=           -143.0422
   XY=              8.3370   XZ=             17.6049   YZ=             58.0070

  Exact polarizability: 240.190   6.900 206.307 -11.591   0.286 186.016
 Approx polarizability: 254.320   2.777 229.156  -6.562  -1.695 249.433

                      1                      2                      3
                      A                      A                      A
 Frequencies --      7.7106                 8.8540                10.9224
 Red. masses --     26.0696                26.0654                26.4230
 Frc consts  --      0.0009                 0.0012                 0.0019
 IR Inten    --      0.5345                 0.4825                 0.2435

                      4                      5                      6
                      A                      A                      A
 Frequencies --     37.9749                44.4268                48.1949
 Red. masses --     25.9157                23.8754                22.0265
 Frc consts  --      0.0220                 0.0278                 0.0301
 IR Inten    --      0.2265                 0.5863                 0.0789

                      7                      8                      9
                      A                      A                      A
 Frequencies --     64.3293                68.4928                71.2080
 Red. masses --     26.2352                27.3400                26.8761
 Frc consts  --      0.0640                 0.0756                 0.0803
 IR Inten    --      0.1991                 0.3102                 0.1435

                     10                     11                     12
                      A                      A                      A
 Frequencies --    130.8556               148.7568               148.9466
 Red. masses --     36.9662                33.8430                33.9474
 Frc consts  --      0.3729                 0.4412                 0.4437
 IR Inten    --      5.1290                 0.5816                 1.3804

                     13                     14                     15
                      A                      A                      A
 Frequencies --    150.7420               165.0504               170.3048
 Red. masses --     33.4196                12.9771                11.4674
 Frc consts  --      0.4474                 0.2083                 0.1960
 IR Inten    --      0.2247                 2.1953                 0.2540

                     16                     17                     18
                      A                      A                      A
 Frequencies --    183.8131               235.6605               245.5670
 Red. masses --     11.2128                28.2792                29.1222
 Frc consts  --      0.2232                 0.9253                 1.0347
 IR Inten    --      3.3639                28.2225                24.7355

                     19                     20                     21
                      A                      A                      A
 Frequencies --    262.2997               269.8135               272.1122
 Red. masses --     15.9743                 8.6285                 7.3169
 Frc consts  --      0.6475                 0.3701                 0.3192
 IR Inten    --      0.7134                 3.5318                 1.0229

                     22                     23                     24
                      A                      A                      A
 Frequencies --    273.3642               275.1520               280.8129
 Red. masses --      8.3907                11.7121                14.0337
 Frc consts  --      0.3694                 0.5224                 0.6520
 IR Inten    --      4.1039                 9.6600                13.1352

                     25                     26                     27
                      A                      A                      A
 Frequencies --    335.8429               342.2492               348.5805
 Red. masses --     26.6042                28.0072                30.6779
 Frc consts  --      1.7680                 1.9329                 2.1962
 IR Inten    --      0.9746                 9.2709                30.7641

                     28                     29                     30
                      A                      A                      A
 Frequencies --    518.6514               525.3815               528.3476
 Red. masses --     11.7722                11.3533                11.4800
 Frc consts  --      1.8658                 1.8464                 1.8881
 IR Inten    --      1.5725                 1.8118                 2.2236

                     31                     32                     33
                      A                      A                      A
 Frequencies --    567.8944               575.6199               577.4295
 Red. masses --      5.5596                 6.2455                 6.4280
 Frc consts  --      1.0564                 1.2192                 1.2628
 IR Inten    --      4.3764                 3.9019                 6.8457

                     34                     35                     36
                      A                      A                      A
 Frequencies --    671.4816               673.6101               688.3828
 Red. masses --      5.8491                 5.9798                 7.3009
 Frc consts  --      1.5538                 1.5987                 2.0384
 IR Inten    --      4.0114                 5.9356                 7.5377

                     37                     38                     39
                      A                      A                      A
 Frequencies --    714.8845               724.6018               732.7177
 Red. masses --      9.8455                10.9705                11.2337
 Frc consts  --      2.9645                 3.3937                 3.5534
 IR Inten    --      3.2156                 1.5970                 8.1910

                     40                     41                     42
                      A                      A                      A
 Frequencies --    846.0688               849.4759               871.8873
 Red. masses --      1.3809                 1.3683                 1.3654
 Frc consts  --      0.5824                 0.5817                 0.6116
 IR Inten    --      9.0261                 9.5589                 8.4644

                     43                     44                     45
                      A                      A                      A
 Frequencies --    947.0952               949.2800               952.2562
 Red. masses --      6.9870                 6.8233                 7.1835
 Frc consts  --      3.6926                 3.6227                 3.8379
 IR Inten    --     12.9139                34.5412                24.0708

                     46                     47                     48
                      A                      A                      A
 Frequencies --   1102.4918              1107.4161              1110.4737
 Red. masses --      4.4782                 5.3830                 5.2798
 Frc consts  --      3.2071                 3.8895                 3.8360
 IR Inten    --     97.5147               160.5452               206.5864

                     49                     50                     51
                      A                      A                      A
 Frequencies --   1202.1981              1223.6525              1225.0618
 Red. masses --      5.6360                 3.3696                 3.5892
 Frc consts  --      4.7992                 2.9727                 3.1736
 IR Inten    --     36.7024                48.1351                75.1166

                     52                     53                     54
                      A                      A                      A
 Frequencies --   1237.5008              1247.7710              1267.7699
 Red. masses --      3.0615                 3.0157                 2.2667
 Frc consts  --      2.7623                 2.7663                 2.1465
 IR Inten    --    220.7938               107.6080                16.3606

                     55                     56                     57
                      A                      A                      A
 Frequencies --   1332.6942              1341.6338              1361.9403
 Red. masses --     12.1411                10.6656                 7.8966
 Frc consts  --     12.7049                11.3111                 8.6299
 IR Inten    --     22.5119                26.3118                36.5386

                     58                     59                     60
                      A                      A                      A
 Frequencies --   1463.8340              1470.8426              1502.8072
 Red. masses --      2.6322                 2.7822                 3.4145
 Frc consts  --      3.3232                 3.5462                 4.5435
 IR Inten    --    187.4262                60.9700                70.5588

                     61                     62                     63
                      A                      A                      A
 Frequencies --   1579.2265              1585.5800              1608.4922
 Red. masses --     12.0029                11.9971                11.9267
 Frc consts  --     17.6370                17.7706                18.1806
 IR Inten    --     30.1891                28.9975                39.4862

                     64                     65                     66
                      A                      A                      A
 Frequencies --   3266.6543              3266.9054              3292.3042
 Red. masses --      1.0961                 1.0960                 1.0985
 Frc consts  --      6.8912                 6.8917                 7.0155
 IR Inten    --      1.0666                 2.6482                 1.3685

 - Thermochemistry -
 -------------------
 Temperature   298.150 Kelvin.  Pressure   1.00000 Atm.
 Atom     1 has atomic number  3 and mass   7.01600

 Molecular mass:   470.80424 amu.
 Principal axes and moments of inertia in atomic units:
                           1         2         3
     Eigenvalues --  ******************************
           X            0.87693  -0.46974   0.10165
           Y            0.46948   0.88250   0.02801
           Z           -0.10286   0.02316   0.99443
 This molecule is an asymmetric top.
 Rotational symmetry number  1.
 Warning -- assumption of classical behavior for rotation
           may cause significant error
 Rotational temperatures (Kelvin)      0.00751     0.00558     0.00383
 Rotational constants (GHZ):           0.15655     0.11636     0.07980
 Zero-point vibrational energy     306928.0 (Joules/Mol)
                                   73.35755 (Kcal/Mol)
 Warning -- explicit consideration of  33 degrees of freedom as
           vibrations may cause significant error
 Vibrational temperatures:     11.09    12.74    15.71    54.64    63.92
          (Kelvin)             69.34    92.56    98.55   102.45   188.27
                              214.03   214.30   216.88   237.47   245.03
                              264.47   339.06   353.32   377.39   388.20
                              391.51   393.31   395.88   404.03   483.20
                              492.42   501.53   746.22   755.91   760.17
                              817.07   828.19   830.79   966.11   969.17
                              990.43  1028.56  1042.54  1054.22  1217.30
                             1222.21  1254.45  1362.66  1365.80  1370.08
                             1586.24  1593.32  1597.72  1729.69  1760.56
                             1762.59  1780.49  1795.26  1824.04  1917.45
                             1930.31  1959.53  2106.13  2116.21  2162.20
                             2272.15  2281.30  2314.26  4699.99  4700.35
                             4736.89

 Zero-point correction=                           0.116903 (Hartree/Particle)
 Thermal correction to Energy=                    0.139076
 Thermal correction to Enthalpy=                  0.140020
 Thermal correction to Gibbs Free Energy=         0.055601
 Sum of electronic and zero-point Energies=          -3586.574634
 Sum of electronic and thermal Energies=             -3586.552461
 Sum of electronic and thermal Enthalpies=           -3586.551517
 Sum of electronic and thermal Free Energies=        -3586.635936

                     E (Thermal)             CV                S
                      KCal/Mol        Cal/Mol-Kelvin    Cal/Mol-Kelvin
 Total                   87.271             73.239            177.675
 Electronic               0.000              0.000              2.755
 Translational            0.889              2.981             44.336
 Rotational               0.889              2.981             36.645
 Vibrational             85.494             67.278             93.939
 Vibration     1          0.593              1.987              8.528
 Vibration     2          0.593              1.987              8.253
 Vibration     3          0.593              1.987              7.836
 Vibration     4          0.594              1.982              5.362
 Vibration     5          0.595              1.980              5.051
 Vibration     6          0.595              1.978              4.890
 Vibration     7          0.597              1.971              4.320
 Vibration     8          0.598              1.969              4.196
 Vibration     9          0.598              1.968              4.120
 Vibration    10          0.612              1.922              2.933
 Vibration    11          0.618              1.904              2.688
 Vibration    12          0.618              1.904              2.686
 Vibration    13          0.618              1.902              2.663
 Vibration    14          0.623              1.885              2.491
 Vibration    15          0.625              1.879              2.432
 Vibration    16          0.631              1.862              2.289
 Vibration    17          0.655              1.786              1.835
 Vibration    18          0.660              1.770              1.762
 Vibration    19          0.670              1.742              1.646
 Vibration    20          0.674              1.729              1.597
 Vibration    21          0.675              1.725              1.583
 Vibration    22          0.676              1.722              1.575
 Vibration    23          0.677              1.719              1.564
 Vibration    24          0.680              1.709              1.529
 Vibration    25          0.717              1.604              1.232
 Vibration    26          0.721              1.591              1.202
 Vibration    27          0.726              1.578              1.173
 Vibration    28          0.874              1.209              0.613
 Vibration    29          0.880              1.194              0.598
 Vibration    30          0.883              1.187              0.591
 Vibration    31          0.924              1.101              0.508
 Vibration    32          0.932              1.084              0.494
 Vibration    33          0.934              1.080              0.490

 Optimization completed.
    -- Stationary point found.
 Normal termination of Gaussian 16 at Fri Oct  4 12:28:22 2019.
