 Gaussian 16, Revision A.03,
 Gaussian 16:  ES64L-G16RevA.03 25-Dec-2016

 ----------------------------------------------------------------------
 # opt=(calcall,tight,cartesian) freq cam-b3lyp/gen nosymm scf=(qc,maxc
 ycle=1024,vshift=100) pseudo=read
 ----------------------------------------------------------------------

 ---------------
 Co_PO_opt_freq4
 ---------------
 Symbolic Z-matrix:
 Charge =  0 Multiplicity = 4

 SCF Done:  E(UCAM-B3LYP) =  -3779.74680063     a.u. after   31 cycles
 Optimization completed.
    -- Stationary point found.
 Normal termination of Gaussian 16 at Sat Oct  5 17:45:31 2019.

 ----------------------------------------------------------------------
 #N Geom=AllCheck Guess=TCheck SCRF=Check GenChk UCAM-B3LYP/ChkBas Freq
 ----------------------------------------------------------------------

 Structure from the checkpoint file:  "Co_PO_opt_freq4.chk"
 ---------------
 Co_PO_opt_freq4
 ---------------
 Charge =  0 Multiplicity = 4

                          Input orientation:
 ---------------------------------------------------------------------
 Center     Atomic      Atomic             Coordinates (Angstroms)
 Number     Number       Type             X           Y           Z
 ---------------------------------------------------------------------
      1          3           0       -0.658759   -5.046055   -3.464522
      2          7           0       -0.328360   -3.614087   -2.281904
      3          6           0       -0.906263   -4.016726   -1.112143
      4         17           0       -1.577138   -5.615129   -1.032924
      5          7           0        2.258511    2.612686   -2.483143
      6          6           0        3.188540    1.644460   -2.312649
      7         17           0        4.793597    1.770585   -2.934288
      8          7           0       -3.379063    2.028570    1.064048
      9          6           0       -3.732950    1.762614   -0.217884
     10         17           0       -5.251816    2.241925   -0.881119
     11          7           0       -0.218929   -1.952793   -0.791554
     12          6           0       -0.847042   -3.010305   -0.194609
     13         17           0       -1.414808   -2.970619    1.418439
     14          7           0       -1.708606    0.910595    0.043651
     15          6           0       -2.727699    1.082221   -0.850989
     16         17           0       -2.623508    0.492047   -2.468674
     17          7           0        1.354083    0.908423   -1.309878
     18          6           0        2.655633    0.601898   -1.600176
     19         17           0        3.385520   -0.887557   -1.106150
     20          6           0        0.067643   -2.361991   -2.031574
     21          1           0        0.570486   -1.731302   -2.750488
     22          6           0       -2.173110    1.506326    1.175802
     23          1           0       -1.587341    1.528280    2.085030
     24          6           0        1.186231    2.135322   -1.874765
     25          1           0        0.240956    2.658795   -1.818150
     26         27           0       -0.006127   -0.011630   -0.204441
     27          6           0        1.873248   -0.680534    2.304566
     28          6           0        1.923060    0.770667    2.119168
     29          8           0        0.737945    0.028034    1.741094
     30          6           0        1.621428   -1.314969    3.637851
     31          1           0        2.472266    1.191935    1.282147
     32          1           0        1.762076    1.423292    2.972470
     33          1           0        1.037087   -2.230637    3.520032
     34          1           0        1.075543   -0.634527    4.294672
     35          1           0        2.572988   -1.573533    4.110718
     36          1           0        2.394820   -1.282193    1.563812
 ---------------------------------------------------------------------

 SCF Done:  E(UCAM-B3LYP) =  -3779.74680062     a.u. after    1 cycles

 Alpha  occ. eigenvalues -- -101.66966-101.63674-101.61034-101.59404-101.57958
 Alpha  occ. eigenvalues -- -101.56989 -19.29367 -14.45684 -14.45223 -14.41282
 Alpha  occ. eigenvalues --  -14.40459 -14.36626 -14.35943 -10.36886 -10.36682
 Alpha  occ. eigenvalues --  -10.35433 -10.34760 -10.34484 -10.31348 -10.30280
 Alpha  occ. eigenvalues --  -10.30250 -10.29263 -10.28337 -10.28040 -10.27787
 Alpha  occ. eigenvalues --   -9.60181  -9.56837  -9.54193  -9.52576  -9.51222
 Alpha  occ. eigenvalues --   -9.50252  -7.36577  -7.35690  -7.35566  -7.33315
 Alpha  occ. eigenvalues --   -7.32254  -7.32242  -7.30615  -7.29650  -7.29628
 Alpha  occ. eigenvalues --   -7.29009  -7.28025  -7.28002  -7.27659  -7.26689
 Alpha  occ. eigenvalues --   -7.26657  -7.26637  -7.25687  -7.25669  -3.95953
 Alpha  occ. eigenvalues --   -2.66134  -2.66008  -2.64697  -2.16703  -1.20426
 Alpha  occ. eigenvalues --   -1.14163  -1.07818  -1.07032  -1.01777  -0.99356
 Alpha  occ. eigenvalues --   -0.95352  -0.94512  -0.94174  -0.93560  -0.92514
 Alpha  occ. eigenvalues --   -0.88494  -0.87538  -0.86532  -0.83018  -0.78899
 Alpha  occ. eigenvalues --   -0.76804  -0.75967  -0.71147  -0.70596  -0.68173
 Alpha  occ. eigenvalues --   -0.64460  -0.63623  -0.63357  -0.62523  -0.61714
 Alpha  occ. eigenvalues --   -0.60860  -0.58130  -0.57023  -0.56234  -0.56099
 Alpha  occ. eigenvalues --   -0.54451  -0.53189  -0.52592  -0.51945  -0.51276
 Alpha  occ. eigenvalues --   -0.50645  -0.50101  -0.49553  -0.48855  -0.48529
 Alpha  occ. eigenvalues --   -0.47904  -0.47660  -0.46831  -0.46784  -0.46458
 Alpha  occ. eigenvalues --   -0.45804  -0.45253  -0.45094  -0.44376  -0.44268
 Alpha  occ. eigenvalues --   -0.44111  -0.43561  -0.41130  -0.40849  -0.40533
 Alpha  occ. eigenvalues --   -0.39962  -0.39295  -0.39062  -0.38717  -0.38243
 Alpha  occ. eigenvalues --   -0.38159  -0.37378  -0.37099  -0.35939  -0.35004
 Alpha  occ. eigenvalues --   -0.34053  -0.31485  -0.30860  -0.30668  -0.30429
 Alpha  occ. eigenvalues --   -0.29388  -0.25113  -0.24086
 Alpha virt. eigenvalues --   -0.06285  -0.00595   0.00203   0.03998   0.04303
 Alpha virt. eigenvalues --    0.04457   0.05696   0.06010   0.06262   0.06700
 Alpha virt. eigenvalues --    0.08154   0.09132   0.10306   0.10620   0.11233

  Beta  occ. eigenvalues -- -101.66965-101.63673-101.61032-101.59402-101.57957
  Beta  occ. eigenvalues -- -101.56987 -19.29224 -14.45563 -14.45217 -14.41138
  Beta  occ. eigenvalues --  -14.40295 -14.36619 -14.35928 -10.36877 -10.36678
  Beta  occ. eigenvalues --  -10.35425 -10.34749 -10.34482 -10.31348 -10.30262
  Beta  occ. eigenvalues --  -10.30261 -10.29234 -10.28322 -10.28039 -10.27759
  Beta  occ. eigenvalues --   -9.60180  -9.56836  -9.54192  -9.52573  -9.51220
  Beta  occ. eigenvalues --   -9.50250  -7.36575  -7.35689  -7.35564  -7.33313
  Beta  occ. eigenvalues --   -7.32252  -7.32242  -7.30613  -7.29647  -7.29628
  Beta  occ. eigenvalues --   -7.29006  -7.28019  -7.28001  -7.27657  -7.26688
  Beta  occ. eigenvalues --   -7.26654  -7.26635  -7.25682  -7.25667  -3.80598
  Beta  occ. eigenvalues --   -2.49305  -2.49203  -2.49068  -2.16703  -1.20216
  Beta  occ. eigenvalues --   -1.14075  -1.07681  -1.06858  -1.01709  -0.99338
  Beta  occ. eigenvalues --   -0.95312  -0.94426  -0.94104  -0.93470  -0.92418
  Beta  occ. eigenvalues --   -0.88390  -0.87414  -0.86452  -0.82974  -0.78753
  Beta  occ. eigenvalues --   -0.76733  -0.75889  -0.71083  -0.70472  -0.68085
  Beta  occ. eigenvalues --   -0.64265  -0.63406  -0.62972  -0.62289  -0.61571
  Beta  occ. eigenvalues --   -0.60702  -0.57973  -0.56399  -0.56019  -0.55375
  Beta  occ. eigenvalues --   -0.54363  -0.53035  -0.52338  -0.50893  -0.50077
  Beta  occ. eigenvalues --   -0.49121  -0.48856  -0.48590  -0.47721  -0.47582
  Beta  occ. eigenvalues --   -0.46750  -0.46677  -0.45843  -0.45379  -0.45151
  Beta  occ. eigenvalues --   -0.44638  -0.44229  -0.43239  -0.42823  -0.41757
  Beta  occ. eigenvalues --   -0.41304  -0.40536  -0.40505  -0.39484  -0.39128
  Beta  occ. eigenvalues --   -0.39068  -0.38670  -0.37758  -0.37202  -0.36856
  Beta  occ. eigenvalues --   -0.35684  -0.35395  -0.34454  -0.31622  -0.30998
  Beta  occ. eigenvalues --   -0.30834  -0.30384  -0.29484  -0.25104  -0.24069
  Beta virt. eigenvalues --   -0.06287  -0.02196  -0.01576  -0.00913  -0.00483
  Beta virt. eigenvalues --    0.00293   0.04019   0.04409   0.04655   0.05733
  Beta virt. eigenvalues --    0.06163   0.06627   0.06862   0.08420   0.09364

 Mulliken charges and spin densities:
               1          2
     1  Li   0.614646   0.000469
     2  N   -0.505333   0.001715
     3  C    0.067660   0.004170
     4  Cl   0.062460   0.001168
     5  N   -0.367102   0.001882
     6  C    0.020294   0.010323
     7  Cl  -0.018506   0.001558
     8  N   -0.369639   0.005337
     9  C    0.018028   0.016765
    10  Cl  -0.020228   0.001734
    11  N   -0.506602   0.044157
    12  C    0.048734  -0.000306
    13  Cl   0.053447   0.000641
    14  N   -0.555422   0.075884
    15  C    0.047477  -0.010118
    16  Cl  -0.015658   0.001547
    17  N   -0.558733   0.063725
    18  C    0.005749  -0.004900
    19  Cl  -0.031238   0.000930
    20  C    0.250908   0.003366
    21  H    0.161822   0.000573
    22  C    0.188969   0.012261
    23  H    0.101359  -0.000246
    24  C    0.190399   0.004618
    25  H    0.131231   0.000356
    26  Co   0.814140   2.723717
    27  C    0.131568   0.003222
    28  C   -0.010034   0.001948
    29  O   -0.491051   0.029877
    30  C   -0.331625   0.000518
    31  H    0.173533   0.001318
    32  H    0.146573   0.000467
    33  H    0.141600   0.000081
    34  H    0.130180  -0.000041
    35  H    0.129844   0.000603
    36  H    0.150551   0.000684
 Sum of Mulliken charges =  -0.00000   3.00000

 Dipole moment (field-independent basis, Debye):
    X=              3.1792    Y=            -17.3506    Z=             -1.2473  Tot=             17.6835
 Quadrupole moment (field-independent basis, Debye-Ang):
   XX=           -244.0878   YY=           -152.6438   ZZ=           -164.8314
   XY=             11.3611   XZ=             29.0499   YZ=             57.2313

  Exact polarizability: 256.343  -5.436 239.633 -18.387  -1.228 227.524
 Approx polarizability: 282.219 -11.218 277.331 -22.677   1.142 281.407

                      1                      2                      3
                      A                      A                      A
 Frequencies --     10.9284                13.3552                18.3607
 Red. masses --     12.6048                23.1715                10.0403
 Frc consts  --      0.0009                 0.0024                 0.0020
 IR Inten    --      0.2273                 0.8221                 0.2675

                      4                      5                      6
                      A                      A                      A
 Frequencies --     24.0337                34.7576                39.2574
 Red. masses --      4.8299                 7.3326                 7.1192
 Frc consts  --      0.0016                 0.0052                 0.0065
 IR Inten    --      1.7249                 0.3974                 0.6876

                      7                      8                      9
                      A                      A                      A
 Frequencies --     42.1332                54.0947                64.2227
 Red. masses --      4.4745                17.6951                19.5375
 Frc consts  --      0.0047                 0.0305                 0.0475
 IR Inten    --      0.4314                 0.1833                 1.3616

                     10                     11                     12
                      A                      A                      A
 Frequencies --     69.5505                74.2662                76.5578
 Red. masses --     20.1596                13.4650                16.7489
 Frc consts  --      0.0575                 0.0438                 0.0578
 IR Inten    --      0.3297                 0.1366                 0.8494

                     13                     14                     15
                      A                      A                      A
 Frequencies --    108.4569               122.1149               135.3675
 Red. masses --      6.3536                 5.2454                 4.0823
 Frc consts  --      0.0440                 0.0461                 0.0441
 IR Inten    --      3.1527                 2.5773                 0.4284

                     16                     17                     18
                      A                      A                      A
 Frequencies --    151.0291               151.3549               153.2304
 Red. masses --     33.0235                33.5094                29.4528
 Frc consts  --      0.4438                 0.4523                 0.4074
 IR Inten    --      0.7165                 0.4936                 0.4450

                     19                     20                     21
                      A                      A                      A
 Frequencies --    166.1524               181.2190               191.8322
 Red. masses --     12.1288                 9.0364                 7.2332
 Frc consts  --      0.1973                 0.1748                 0.1568
 IR Inten    --      0.4616                 1.6941                 1.2060

                     22                     23                     24
                      A                      A                      A
 Frequencies --    213.4779               224.8191               234.0480
 Red. masses --      1.2319                15.9575                19.3444
 Frc consts  --      0.0331                 0.4752                 0.6243
 IR Inten    --      2.7475                17.0867                25.0894

                     25                     26                     27
                      A                      A                      A
 Frequencies --    249.8610               267.3455               268.2898
 Red. masses --      8.9247                 8.0621                10.8810
 Frc consts  --      0.3283                 0.3395                 0.4615
 IR Inten    --     14.2344                 1.1132                 8.7538

                     28                     29                     30
                      A                      A                      A
 Frequencies --    270.6395               274.7074               276.6244
 Red. masses --      8.4624                 9.4439                11.7375
 Frc consts  --      0.3652                 0.4199                 0.5292
 IR Inten    --      2.3664                 4.0687                11.8470

                     31                     32                     33
                      A                      A                      A
 Frequencies --    278.7442               334.4539               338.8827
 Red. masses --     14.3557                26.5919                27.1676
 Frc consts  --      0.6572                 1.7526                 1.8382
 IR Inten    --     12.4209                 2.0988                 5.6022

                     34                     35                     36
                      A                      A                      A
 Frequencies --    341.7266               402.6814               447.9435
 Red. masses --     28.9651                 2.1483                 3.2182
 Frc consts  --      1.9929                 0.2052                 0.3805
 IR Inten    --     19.5414                 2.5425                32.2441

                     37                     38                     39
                      A                      A                      A
 Frequencies --    520.6313               524.6984               526.7709
 Red. masses --     11.5251                11.3326                11.6306
 Frc consts  --      1.8406                 1.8382                 1.9015
 IR Inten    --      1.3777                 1.3073                 1.2209

                     40                     41                     42
                      A                      A                      A
 Frequencies --    565.0236               575.7710               577.0461
 Red. masses --      5.5567                 6.4414                 6.6433
 Frc consts  --      1.0452                 1.2581                 1.3033
 IR Inten    --      3.7904                 3.5099                 5.5698

                     43                     44                     45
                      A                      A                      A
 Frequencies --    669.1687               676.8514               687.2288
 Red. masses --      5.9737                 5.9514                 7.0880
 Frc consts  --      1.5760                 1.6064                 1.9723
 IR Inten    --      3.6968                 5.1855                 8.3993

                     46                     47                     48
                      A                      A                      A
 Frequencies --    703.6149               705.8964               717.4434
 Red. masses --     10.2585                10.5625                11.0833
 Frc consts  --      2.9923                 3.1010                 3.3612
 IR Inten    --      2.2191                 4.0566                 3.6711

                     49                     50                     51
                      A                      A                      A
 Frequencies --    779.9321               843.5077               862.5183
 Red. masses --      4.1328                 1.3591                 1.3493
 Frc consts  --      1.4812                 0.5697                 0.5914
 IR Inten    --     13.3944                 7.6531                 5.9272

                     52                     53                     54
                      A                      A                      A
 Frequencies --    865.5189               879.2448               927.4185
 Red. masses --      3.0567                 1.3643                 1.2753
 Frc consts  --      1.3491                 0.6214                 0.6463
 IR Inten    --     93.2840                 7.3973                15.5975

                     55                     56                     57
                      A                      A                      A
 Frequencies --    938.4015               943.5264               946.4204
 Red. masses --      6.6442                 6.9484                 7.3434
 Frc consts  --      3.4472                 3.6445                 3.8754
 IR Inten    --     25.8932                14.3160                26.8034

                     58                     59                     60
                      A                      A                      A
 Frequencies --    988.7994              1062.0243              1094.4401
 Red. masses --      2.3158                 1.2649                 4.5434
 Frc consts  --      1.3340                 0.8406                 3.2064
 IR Inten    --     31.4571                30.7767               110.0298

                     61                     62                     63
                      A                      A                      A
 Frequencies --   1097.4080              1102.7093              1142.0825
 Red. masses --      5.0203                 5.0822                 1.4253
 Frc consts  --      3.5622                 3.6410                 1.0953
 IR Inten    --    157.3153               174.3217                13.8816

                     64                     65                     66
                      A                      A                      A
 Frequencies --   1187.3256              1194.2465              1197.3237
 Red. masses --      1.4454                 1.5294                 5.6012
 Frc consts  --      1.2006                 1.2852                 4.7310
 IR Inten    --     17.3519                 1.7698                27.9863

                     67                     68                     69
                      A                      A                      A
 Frequencies --   1217.3552              1223.1535              1224.9713
 Red. masses --      1.5010                 3.4127                 3.9990
 Frc consts  --      1.3106                 3.0082                 3.5355
 IR Inten    --      4.7694                42.6405                64.6725

                     70                     71                     72
                      A                      A                      A
 Frequencies --   1245.3360              1250.4106              1267.3491
 Red. masses --      2.8428                 2.7775                 2.2374
 Frc consts  --      2.5976                 2.5586                 2.1173
 IR Inten    --    159.3388                79.3827                12.2102

                     73                     74                     75
                      A                      A                      A
 Frequencies --   1317.1868              1332.6445              1343.1422
 Red. masses --      1.4751                11.5928                11.7264
 Frc consts  --      1.5078                12.1302                12.4640
 IR Inten    --      9.6276                24.5215                20.5764

                     76                     77                     78
                      A                      A                      A
 Frequencies --   1359.5696              1424.7245              1464.7840
 Red. masses --      7.4220                 1.2605                 2.6511
 Frc consts  --      8.0830                 1.5075                 3.3514
 IR Inten    --     37.4571                 3.1494               117.0640

                     79                     80                     81
                      A                      A                      A
 Frequencies --   1468.6734              1471.0168              1499.1054
 Red. masses --      2.6486                 1.5859                 3.2233
 Frc consts  --      3.3660                 2.0219                 4.2680
 IR Inten    --     69.9935                16.7834                67.0653

                     82                     83                     84
                      A                      A                      A
 Frequencies --   1499.6364              1516.0004              1552.7468
 Red. masses --      1.0737                 1.0662                 1.5776
 Frc consts  --      1.4227                 1.4438                 2.2411
 IR Inten    --      2.0335                 4.8762                13.7386

                     85                     86                     87
                      A                      A                      A
 Frequencies --   1563.5163              1571.4757              1606.2462
 Red. masses --     11.9488                11.9625                11.9091
 Frc consts  --     17.2100                17.4055                18.1031
 IR Inten    --     26.7119                29.0433                35.7357

                     88                     89                     90
                      A                      A                      A
 Frequencies --   3083.3034              3161.2489              3161.5910
 Red. masses --      1.0362                 1.0688                 1.0864
 Frc consts  --      5.8040                 6.2932                 6.3982
 IR Inten    --      6.9952                12.5426                 2.2006

                     91                     92                     93
                      A                      A                      A
 Frequencies --   3170.4963              3198.3934              3263.6340
 Red. masses --      1.1034                 1.0919                 1.1225
 Frc consts  --      6.5350                 6.5811                 7.0446
 IR Inten    --      5.4405                 4.4630                 0.9779

                     94                     95                     96
                      A                      A                      A
 Frequencies --   3270.9858              3273.9418              3298.4012
 Red. masses --      1.0951                 1.0962                 1.0986
 Frc consts  --      6.9031                 6.9228                 7.0418
 IR Inten    --      5.4635                 1.0359                 1.6415

 - Thermochemistry -
 -------------------
 Temperature   298.150 Kelvin.  Pressure   1.00000 Atm.
 Atom     1 has atomic number  3 and mass   7.01600

 Molecular mass:   528.84610 amu.
 Principal axes and moments of inertia in atomic units:
                           1         2         3
     Eigenvalues --  ******************************
           X            0.95268  -0.26715   0.14503
           Y            0.25169   0.96077   0.11647
           Z           -0.17046  -0.07446   0.98255
 This molecule is an asymmetric top.
 Rotational symmetry number  1.
 Warning -- assumption of classical behavior for rotation
           may cause significant error
 Rotational temperatures (Kelvin)      0.00588     0.00484     0.00375
 Rotational constants (GHZ):           0.12244     0.10083     0.07807
 Zero-point vibrational energy     538980.8 (Joules/Mol)
                                  128.81950 (Kcal/Mol)
 Warning -- explicit consideration of  42 degrees of freedom as
           vibrations may cause significant error
 Vibrational temperatures:     15.72    19.22    26.42    34.58    50.01
          (Kelvin)             56.48    60.62    77.83    92.40   100.07
                              106.85   110.15   156.05   175.70   194.76
                              217.30   217.77   220.46   239.06   260.73
                              276.00   307.15   323.46   336.74   359.49
                              384.65   386.01   389.39   395.24   398.00
                              401.05   481.20   487.58   491.67   579.37
                              644.49   749.07   754.92   757.91   812.94
                              828.41   830.24   962.78   973.84   988.77
                             1012.34  1015.63  1032.24  1122.15  1213.62
                             1240.97  1245.29  1265.04  1334.35  1350.15
                             1357.52  1361.69  1422.66  1528.02  1574.66
                             1578.93  1586.55  1643.20  1708.30  1718.25
                             1722.68  1751.50  1759.85  1762.46  1791.76
                             1799.06  1823.43  1895.14  1917.38  1932.48
                             1956.12  2049.86  2107.50  2113.09  2116.47
                             2156.88  2157.64  2181.19  2234.06  2249.55
                             2261.00  2311.03  4436.19  4548.33  4548.82
                             4561.64  4601.77  4695.64  4706.22  4710.47
                             4745.66

 Zero-point correction=                           0.205287 (Hartree/Particle)
 Thermal correction to Energy=                    0.233336
 Thermal correction to Enthalpy=                  0.234280
 Thermal correction to Gibbs Free Energy=         0.137313
 Sum of electronic and zero-point Energies=          -3779.541514
 Sum of electronic and thermal Energies=             -3779.513464
 Sum of electronic and thermal Enthalpies=           -3779.512520
 Sum of electronic and thermal Free Energies=        -3779.609488

                     E (Thermal)             CV                S
                      KCal/Mol        Cal/Mol-Kelvin    Cal/Mol-Kelvin
 Total                  146.421             93.379            204.085
 Electronic               0.000              0.000              2.755
 Translational            0.889              2.981             44.683
 Rotational               0.889              2.981             37.054
 Vibrational            144.643             87.417            119.594
 Vibration     1          0.593              1.987              7.835
 Vibration     2          0.593              1.987              7.436
 Vibration     3          0.593              1.986              6.804
 Vibration     4          0.593              1.985              6.269
 Vibration     5          0.594              1.983              5.537
 Vibration     6          0.594              1.981              5.296
 Vibration     7          0.595              1.980              5.156
 Vibration     8          0.596              1.976              4.662
 Vibration     9          0.597              1.971              4.323
 Vibration    10          0.598              1.969              4.166
 Vibration    11          0.599              1.966              4.037
 Vibration    12          0.599              1.965              3.977
 Vibration    13          0.606              1.942              3.296
 Vibration    14          0.610              1.931              3.067
 Vibration    15          0.613              1.918              2.868
 Vibration    16          0.618              1.902              2.659
 Vibration    17          0.619              1.901              2.655
 Vibration    18          0.619              1.899              2.632
 Vibration    19          0.624              1.884              2.479
 Vibration    20          0.630              1.865              2.316
 Vibration    21          0.634              1.851              2.210
 Vibration    22          0.644              1.820              2.014
 Vibration    23          0.649              1.803              1.920
 Vibration    24          0.654              1.789              1.848
 Vibration    25          0.663              1.763              1.732
 Vibration    26          0.672              1.733              1.613
 Vibration    27          0.673              1.731              1.607
 Vibration    28          0.674              1.727              1.592
 Vibration    29          0.677              1.720              1.566
 Vibration    30          0.678              1.717              1.554
 Vibration    31          0.679              1.713              1.541
 Vibration    32          0.716              1.607              1.238
 Vibration    33          0.719              1.598              1.217
 Vibration    34          0.721              1.592              1.204
 Vibration    35          0.768              1.464              0.953
 Vibration    36          0.807              1.365              0.802
 Vibration    37          0.876              1.204              0.608
 Vibration    38          0.880              1.195              0.599
 Vibration    39          0.882              1.191              0.594
 Vibration    40          0.921              1.107              0.514
 Vibration    41          0.932              1.084              0.493
 Vibration    42          0.934              1.081              0.491

 Optimization completed.
    -- Stationary point found.
 Normal termination of Gaussian 16 at Sat Oct  5 18:06:20 2019.
