 Gaussian 16, Revision A.03,
 Gaussian 16:  ES64L-G16RevA.03 25-Dec-2016

 ----------------------------------------------------------------------
 # opt=(calcall,tight,cartesian) freq cam-b3lyp/gen nosymm scf=(qc,maxc
 ycle=1024,vshift=100) pseudo=read
 ----------------------------------------------------------------------

 ---------------
 Co_PC_opt_freq4
 ---------------
 Symbolic Z-matrix:
 Charge =  0 Multiplicity = 4

 SCF Done:  E(UCAM-B3LYP) =  -3968.30096819     a.u. after   34 cycles
 Optimization completed.
    -- Stationary point found.
 Normal termination of Gaussian 16 at Tue Jan 21 18:27:54 2020.

 ----------------------------------------------------------------------
 #N Geom=AllCheck Guess=TCheck SCRF=Check GenChk UCAM-B3LYP/ChkBas Freq
 ----------------------------------------------------------------------

 Structure from the checkpoint file:  "Co_PC_opt_freq4.chk"
 ---------------
 Co_PC_opt_freq4
 ---------------
 Charge =  0 Multiplicity = 4

                          Input orientation:
 ---------------------------------------------------------------------
 Center     Atomic      Atomic             Coordinates (Angstroms)
 Number     Number       Type             X           Y           Z
 ---------------------------------------------------------------------
      1          3           0       -0.658759   -5.046055   -3.464522
      2          7           0       -0.328360   -3.614087   -2.281904
      3          6           0       -1.048275   -3.965752   -1.175826
      4         17           0       -1.825399   -5.519444   -1.162579
      5          7           0        2.258511    2.612686   -2.483143
      6          6           0        3.207824    1.679402   -2.234577
      7         17           0        4.860373    1.884965   -2.696832
      8          7           0       -3.379063    2.028570    1.064048
      9          6           0       -3.753882    1.727231   -0.203340
     10         17           0       -5.291221    2.173138   -0.849038
     11          7           0       -0.270882   -1.947687   -0.796630
     12          6           0       -1.022617   -2.955554   -0.260923
     13         17           0       -1.753902   -2.859978    1.280011
     14          7           0       -1.713156    0.908012    0.037851
     15          6           0       -2.751660    1.044541   -0.839697
     16         17           0       -2.673720    0.419897   -2.445923
     17          7           0        1.325904    0.865076   -1.399544
     18          6           0        2.658364    0.612708   -1.571551
     19         17           0        3.405647   -0.831295   -0.987565
     20          6           0        0.116666   -2.386444   -1.997876
     21          1           0        0.728077   -1.794575   -2.663480
     22          6           0       -2.163763    1.524286    1.162508
     23          1           0       -1.562056    1.580299    2.059861
     24          6           0        1.156678    2.084969   -1.971858
     25          1           0        0.190125    2.570806   -1.992573
     26         27           0       -0.006196   -0.019649   -0.216582
     27          6           0        2.513149    3.074742    1.993468
     28          6           0        3.020566    2.261713    3.194365
     29          8           0        1.448142    2.216837    1.503917
     30          6           0        3.529236    3.295776    0.896000
     31          1           0        2.603568    2.589985    4.148834
     32          1           0        4.107730    2.218169    3.255375
     33          1           0        3.048303    3.688757   -0.001810
     34          1           0        4.026012    2.359304    0.628823
     35          1           0        4.285742    4.009243    1.234251
     36          1           0        2.037158    4.006916    2.299253
     37          6           0        1.601644    0.997453    1.988440
     38          8           0        2.534100    0.932915    2.926609
     39          8           0        0.953699    0.031247    1.623414
 ---------------------------------------------------------------------

 SCF Done:  E(UCAM-B3LYP) =  -3968.30096819     a.u. after    1 cycles

 Alpha  occ. eigenvalues -- -101.66188-101.62288-101.60159-101.58984-101.58110
 Alpha  occ. eigenvalues -- -101.56711 -19.31805 -19.31353 -19.26831 -14.44629
 Alpha  occ. eigenvalues --  -14.44259 -14.40717 -14.40000 -14.36587 -14.35608
 Alpha  occ. eigenvalues --  -10.48929 -10.36634 -10.36411 -10.35878 -10.35619
 Alpha  occ. eigenvalues --  -10.33759 -10.30988 -10.30057 -10.29867 -10.28891
 Alpha  occ. eigenvalues --  -10.28094 -10.27462 -10.27086  -9.59408  -9.55463
 Alpha  occ. eigenvalues --   -9.53325  -9.52154  -9.51361  -9.49973  -7.35798
 Alpha  occ. eigenvalues --   -7.34922  -7.34793  -7.31947  -7.30873  -7.30865
 Alpha  occ. eigenvalues --   -7.29758  -7.28766  -7.28761  -7.28588  -7.27793
 Alpha  occ. eigenvalues --   -7.27601  -7.27582  -7.26803  -7.26780  -7.26409
 Alpha  occ. eigenvalues --   -7.25409  -7.25391  -3.95330  -2.65430  -2.65251
 Alpha  occ. eigenvalues --   -2.64294  -2.15882  -1.29468  -1.17374  -1.16867
 Alpha  occ. eigenvalues --   -1.13181  -1.07554  -1.06665  -1.00878  -0.98244
 Alpha  occ. eigenvalues --   -0.94835  -0.93796  -0.93432  -0.93355  -0.92167
 Alpha  occ. eigenvalues --   -0.91787  -0.88245  -0.87185  -0.82775  -0.82010
 Alpha  occ. eigenvalues --   -0.76510  -0.75690  -0.75585  -0.71828  -0.69598
 Alpha  occ. eigenvalues --   -0.67225  -0.65050  -0.64023  -0.63322  -0.63139
 Alpha  occ. eigenvalues --   -0.61550  -0.61369  -0.60504  -0.60336  -0.57983
 Alpha  occ. eigenvalues --   -0.56618  -0.55939  -0.55513  -0.55139  -0.53447
 Alpha  occ. eigenvalues --   -0.52130  -0.51770  -0.50935  -0.50478  -0.50411
 Alpha  occ. eigenvalues --   -0.49566  -0.49258  -0.48646  -0.48279  -0.48078
 Alpha  occ. eigenvalues --   -0.47442  -0.47191  -0.46239  -0.45743  -0.45627
 Alpha  occ. eigenvalues --   -0.44929  -0.44737  -0.44631  -0.44224  -0.43764
 Alpha  occ. eigenvalues --   -0.42963  -0.42881  -0.41342  -0.40643  -0.40070
 Alpha  occ. eigenvalues --   -0.39712  -0.39392  -0.39103  -0.38905  -0.38415
 Alpha  occ. eigenvalues --   -0.38202  -0.37667  -0.36849  -0.36542  -0.35147
 Alpha  occ. eigenvalues --   -0.34889  -0.33715  -0.31434  -0.30378  -0.30215
 Alpha  occ. eigenvalues --   -0.29759  -0.29006  -0.24857  -0.23718
 Alpha virt. eigenvalues --   -0.05664   0.00094   0.00881   0.04439   0.04834
 Alpha virt. eigenvalues --    0.04926   0.05244   0.05772   0.06964   0.07198
 Alpha virt. eigenvalues --    0.07802   0.09615   0.10102   0.10775   0.11238

  Beta  occ. eigenvalues -- -101.66187-101.62287-101.60158-101.58982-101.58109
  Beta  occ. eigenvalues -- -101.56709 -19.31795 -19.31348 -19.26700 -14.44501
  Beta  occ. eigenvalues --  -14.44254 -14.40570 -14.39842 -14.36580 -14.35594
  Beta  occ. eigenvalues --  -10.48922 -10.36634 -10.36409 -10.35869 -10.35617
  Beta  occ. eigenvalues --  -10.33748 -10.30988 -10.30039 -10.29878 -10.28865
  Beta  occ. eigenvalues --  -10.28079 -10.27437 -10.27086  -9.59407  -9.55462
  Beta  occ. eigenvalues --   -9.53324  -9.52152  -9.51360  -9.49972  -7.35796
  Beta  occ. eigenvalues --   -7.34921  -7.34791  -7.31945  -7.30871  -7.30865
  Beta  occ. eigenvalues --   -7.29756  -7.28766  -7.28758  -7.28585  -7.27791
  Beta  occ. eigenvalues --   -7.27595  -7.27581  -7.26801  -7.26778  -7.26408
  Beta  occ. eigenvalues --   -7.25405  -7.25390  -3.79923  -2.48634  -2.48512
  Beta  occ. eigenvalues --   -2.48393  -2.15881  -1.29428  -1.17341  -1.16666
  Beta  occ. eigenvalues --   -1.13089  -1.07422  -1.06501  -1.00809  -0.98223
  Beta  occ. eigenvalues --   -0.94782  -0.93728  -0.93341  -0.93284  -0.92079
  Beta  occ. eigenvalues --   -0.91771  -0.88137  -0.87065  -0.82751  -0.81965
  Beta  occ. eigenvalues --   -0.76444  -0.75663  -0.75525  -0.71761  -0.69469
  Beta  occ. eigenvalues --   -0.67130  -0.64908  -0.63837  -0.63087  -0.62918
  Beta  occ. eigenvalues --   -0.61311  -0.61237  -0.60383  -0.60272  -0.57480
  Beta  occ. eigenvalues --   -0.56083  -0.55600  -0.55062  -0.54905  -0.53362
  Beta  occ. eigenvalues --   -0.52050  -0.51365  -0.50449  -0.50113  -0.48776
  Beta  occ. eigenvalues --   -0.48312  -0.48131  -0.47922  -0.47256  -0.47203
  Beta  occ. eigenvalues --   -0.45939  -0.45652  -0.45030  -0.44589  -0.44357
  Beta  occ. eigenvalues --   -0.44154  -0.42980  -0.42811  -0.42538  -0.42253
  Beta  occ. eigenvalues --   -0.41925  -0.40613  -0.40056  -0.39315  -0.39214
  Beta  occ. eigenvalues --   -0.38883  -0.38470  -0.37961  -0.37299  -0.36712
  Beta  occ. eigenvalues --   -0.36314  -0.35489  -0.34852  -0.34170  -0.31618
  Beta  occ. eigenvalues --   -0.30668  -0.30184  -0.29745  -0.29083  -0.24849
  Beta  occ. eigenvalues --   -0.23705
  Beta virt. eigenvalues --   -0.05668  -0.01425  -0.00708  -0.00409   0.00206
  Beta virt. eigenvalues --    0.00985   0.04836   0.04869   0.05097   0.05314
  Beta virt. eigenvalues --    0.05952   0.07104   0.07307   0.08073   0.09886

 Mulliken charges and spin densities:
               1          2
     1  Li   0.601898   0.000488
     2  N   -0.504739   0.001398
     3  C    0.066570   0.004587
     4  Cl   0.063772   0.001190
     5  N   -0.377124   0.002100
     6  C    0.005461   0.009649
     7  Cl  -0.028000   0.001413
     8  N   -0.372546   0.004925
     9  C    0.017198   0.014760
    10  Cl  -0.023762   0.001550
    11  N   -0.505643   0.048507
    12  C    0.057433  -0.000987
    13  Cl   0.062954   0.000798
    14  N   -0.552643   0.072169
    15  C    0.045614  -0.008682
    16  Cl  -0.016593   0.001517
    17  N   -0.543770   0.063193
    18  C    0.010011  -0.004588
    19  Cl  -0.017375   0.000800
    20  C    0.252339   0.002839
    21  H    0.158596   0.000639
    22  C    0.191328   0.010786
    23  H    0.087520  -0.000120
    24  C    0.187319   0.004310
    25  H    0.127548   0.000354
    26  Co   0.792043   2.730519
    27  C    0.095441  -0.000276
    28  C    0.014087   0.000912
    29  O   -0.408657   0.001401
    30  C   -0.326654   0.000026
    31  H    0.149607  -0.000023
    32  H    0.154455   0.000111
    33  H    0.177879  -0.000003
    34  H    0.137712  -0.000001
    35  H    0.118430  -0.000007
    36  H    0.149618   0.000068
    37  C    0.851039   0.002082
    38  O   -0.419399   0.001931
    39  O   -0.478968   0.029668
 Sum of Mulliken charges =  -0.00000   3.00000

 Dipole moment (field-independent basis, Debye):
    X=              5.2376    Y=            -11.3708    Z=             -0.7529  Tot=             12.5417
 Quadrupole moment (field-independent basis, Debye-Ang):
   XX=           -250.9324   YY=           -155.1550   ZZ=           -180.2926
   XY=             28.2519   XZ=             32.8942   YZ=             72.7725

  Exact polarizability: 277.491  12.397 252.937 -10.520  16.965 229.383
 Approx polarizability: 306.547   0.020 294.830 -15.018   8.982 289.513

                      1                      2                      3
                      A                      A                      A
 Frequencies --     10.0476                11.4730                13.7667
 Red. masses --     25.5166                25.6013                 6.1458
 Frc consts  --      0.0015                 0.0020                 0.0007
 IR Inten    --      0.2961                 0.5726                 2.0337

                      4                      5                      6
                      A                      A                      A
 Frequencies --     19.4463                27.9775                33.5001
 Red. masses --     12.4841                 7.9440                 5.5467
 Frc consts  --      0.0028                 0.0037                 0.0037
 IR Inten    --      0.4845                 1.6797                 0.2023

                      7                      8                      9
                      A                      A                      A
 Frequencies --     38.3385                51.8972                57.3118
 Red. masses --      8.9276                18.9366                17.0156
 Frc consts  --      0.0077                 0.0300                 0.0329
 IR Inten    --      0.2097                 0.5454                 1.0894

                     10                     11                     12
                      A                      A                      A
 Frequencies --     66.1680                71.5999                71.7276
 Red. masses --     24.1619                21.9439                 8.7352
 Frc consts  --      0.0623                 0.0663                 0.0265
 IR Inten    --      0.2031                 0.0169                 1.5276

                     13                     14                     15
                      A                      A                      A
 Frequencies --     73.9651                91.5898               101.7759
 Red. masses --     10.0737                 6.4465                 4.3424
 Frc consts  --      0.0325                 0.0319                 0.0265
 IR Inten    --      1.9101                 1.7166                 0.9586

                     16                     17                     18
                      A                      A                      A
 Frequencies --    119.6475               151.3014               152.1281
 Red. masses --     14.3965                34.0032                33.6094
 Frc consts  --      0.1214                 0.4586                 0.4583
 IR Inten    --      0.9008                 0.5524                 0.5889

                     19                     20                     21
                      A                      A                      A
 Frequencies --    152.5500               165.9982               179.1692
 Red. masses --     34.0577                11.5329                 8.8517
 Frc consts  --      0.4670                 0.1872                 0.1674
 IR Inten    --      0.4877                 0.9621                 2.0107

                     22                     23                     24
                      A                      A                      A
 Frequencies --    188.1958               214.0357               226.6222
 Red. masses --      9.4614                 8.8311                21.7010
 Frc consts  --      0.1974                 0.2384                 0.6567
 IR Inten    --      1.5227                 9.1149                28.0091

                     25                     26                     27
                      A                      A                      A
 Frequencies --    236.5311               251.3226               265.8866
 Red. masses --     16.7817                 3.5310                 4.8621
 Frc consts  --      0.5532                 0.1314                 0.2025
 IR Inten    --     21.7785                19.8468                 6.8325

                     28                     29                     30
                      A                      A                      A
 Frequencies --    269.4441               270.8825               274.0915
 Red. masses --      4.8937                 3.8307                 8.4632
 Frc consts  --      0.2093                 0.1656                 0.3746
 IR Inten    --      2.2834                 2.5589                 6.2644

                     31                     32                     33
                      A                      A                      A
 Frequencies --    276.4818               279.7346               282.5243
 Red. masses --      3.3234                 9.7299                 8.3185
 Frc consts  --      0.1497                 0.4486                 0.3912
 IR Inten    --     20.0171                 7.8186                 9.5185

                     34                     35                     36
                      A                      A                      A
 Frequencies --    334.2050               339.2917               340.9969
 Red. masses --     26.5053                27.2943                28.7035
 Frc consts  --      1.7443                 1.8513                 1.9665
 IR Inten    --      1.6810                 6.2543                18.9952

                     37                     38                     39
                      A                      A                      A
 Frequencies --    351.5145               435.3980               521.0751
 Red. masses --      2.2466                 3.1831                11.5990
 Frc consts  --      0.1636                 0.3555                 1.8555
 IR Inten    --      0.9349                 1.9627                 0.8118

                     40                     41                     42
                      A                      A                      A
 Frequencies --    524.6872               527.0043               563.6564
 Red. masses --     11.3626                11.6669                 5.5335
 Frc consts  --      1.8430                 1.9091                 1.0358
 IR Inten    --      1.5453                 1.0164                 3.1025

                     43                     44                     45
                      A                      A                      A
 Frequencies --    572.3722               575.2146               578.3557
 Red. masses --      7.8369                 6.3078                 6.6307
 Frc consts  --      1.5127                 1.2297                 1.3068
 IR Inten    --     10.3347                 4.2719                 3.3402

                     46                     47                     48
                      A                      A                      A
 Frequencies --    673.4177               676.7903               688.3177
 Red. masses --      6.1980                 5.6733                 7.1653
 Frc consts  --      1.6560                 1.5311                 2.0001
 IR Inten    --      3.9022                 5.9341                 8.4420

                     49                     50                     51
                      A                      A                      A
 Frequencies --    704.3052               707.2581               715.6639
 Red. masses --     10.3722                 9.8913                11.0093
 Frc consts  --      3.0314                 2.9151                 3.3222
 IR Inten    --      2.6794                 3.8606                 3.2682

                     52                     53                     54
                      A                      A                      A
 Frequencies --    733.3812               759.9116               793.1426
 Red. masses --      5.4364                 4.5967                 9.2688
 Frc consts  --      1.7227                 1.5640                 3.4354
 IR Inten    --     26.3435                14.4903                26.3107

                     55                     56                     57
                      A                      A                      A
 Frequencies --    829.4124               862.7543               863.7769
 Red. masses --      1.3938                 3.2147                 1.4052
 Frc consts  --      0.5649                 1.4098                 0.6177
 IR Inten    --      6.5383                11.2677                 4.3963

                     58                     59                     60
                      A                      A                      A
 Frequencies --    877.3314               938.1912               944.2261
 Red. masses --      1.3623                 7.1998                 7.1257
 Frc consts  --      0.6178                 3.7338                 3.7431
 IR Inten    --      5.8552                24.5365                20.9713

                     61                     62                     63
                      A                      A                      A
 Frequencies --    948.0845               953.0349               969.2197
 Red. masses --      7.3661                 3.0165                 1.3768
 Frc consts  --      3.9011                 1.6143                 0.7620
 IR Inten    --     23.4237                 8.3927                 3.1768

                     64                     65                     66
                      A                      A                      A
 Frequencies --   1000.7552              1094.9711              1096.1036
 Red. masses --      3.4310                 4.2147                 4.4824
 Frc consts  --      2.0245                 2.9773                 3.1729
 IR Inten    --      7.0638                95.0524               116.8812

                     67                     68                     69
                      A                      A                      A
 Frequencies --   1098.1918              1103.2849              1112.8728
 Red. masses --      2.5836                 4.6840                 2.5609
 Frc consts  --      1.8358                 3.3592                 1.8687
 IR Inten    --    127.9920               140.2508                14.1573

                     70                     71                     72
                      A                      A                      A
 Frequencies --   1172.3783              1185.7600              1195.6587
 Red. masses --      3.9511                 1.8533                 5.4834
 Frc consts  --      3.1997                 1.5353                 4.6186
 IR Inten    --    153.2009                 2.8363                24.1534

                     73                     74                     75
                      A                      A                      A
 Frequencies --   1221.7377              1224.9209              1248.2142
 Red. masses --      4.1749                 3.4695                 2.7758
 Frc consts  --      3.6716                 3.0672                 2.5481
 IR Inten    --     49.6526                51.5026               138.3759

                     76                     77                     78
                      A                      A                      A
 Frequencies --   1253.1443              1255.0531              1268.1357
 Red. masses --      2.5183                 1.3096                 2.2111
 Frc consts  --      2.3301                 1.2154                 2.0950
 IR Inten    --     87.8595                15.8440                22.2523

                     79                     80                     81
                      A                      A                      A
 Frequencies --   1274.2028              1337.0019              1344.5505
 Red. masses --      1.7226                11.8767                12.0144
 Frc consts  --      1.6478                12.5087                12.7969
 IR Inten    --    117.5484                25.8096                24.5688

                     82                     83                     84
                      A                      A                      A
 Frequencies --   1361.3072              1381.3829              1401.0320
 Red. masses --      7.5137                 1.4648                 1.4363
 Frc consts  --      8.2038                 1.6468                 1.6611
 IR Inten    --     36.6516                27.2671                17.7723

                     85                     86                     87
                      A                      A                      A
 Frequencies --   1451.7103              1467.9574              1472.0360
 Red. masses --      1.3274                 2.7333                 2.8825
 Frc consts  --      1.6482                 3.4703                 3.6800
 IR Inten    --     12.7199               109.1029                61.6985

                     88                     89                     90
                      A                      A                      A
 Frequencies --   1478.1790              1500.8724              1503.0867
 Red. masses --      2.2798                 3.5021                 1.0806
 Frc consts  --      2.9349                 4.6480                 1.4384
 IR Inten    --    117.9631                72.6600                 3.1148

                     91                     92                     93
                      A                      A                      A
 Frequencies --   1511.3482              1543.3530              1563.5500
 Red. masses --      1.0593                 1.1332                11.3818
 Frc consts  --      1.4257                 1.5903                16.3940
 IR Inten    --     21.6700                15.4345                28.1449

                     94                     95                     96
                      A                      A                      A
 Frequencies --   1569.9573              1607.0722              1844.3643
 Red. masses --     11.9550                11.9034                12.6133
 Frc consts  --     17.3610                18.1130                25.2798
 IR Inten    --     29.8104                38.7435              1017.5369

                     97                     98                     99
                      A                      A                      A
 Frequencies --   3082.5850              3118.5968              3150.4385
 Red. masses --      1.0370                 1.0622                 1.0935
 Frc consts  --      5.8057                 6.0864                 6.3947
 IR Inten    --      4.0035                17.3799                 1.5018

                    100                    101                    102
                      A                      A                      A
 Frequencies --   3167.0556              3181.0674              3188.7718
 Red. masses --      1.0998                 1.1046                 1.1099
 Frc consts  --      6.4997                 6.5856                 6.6495
 IR Inten    --     17.4488                 1.0840                 5.9555

                    103                    104                    105
                      A                      A                      A
 Frequencies --   3267.6845              3274.0871              3299.6702
 Red. masses --      1.0946                 1.0962                 1.0984
 Frc consts  --      6.8866                 6.9233                 7.0462
 IR Inten    --      9.9806                 1.0272                 1.6797

 - Thermochemistry -
 -------------------
 Temperature   298.150 Kelvin.  Pressure   1.00000 Atm.
 Atom     1 has atomic number  3 and mass   7.01600

 Molecular mass:   572.83593 amu.
 Principal axes and moments of inertia in atomic units:
                           1         2         3
     Eigenvalues --  ******************************
           X            0.84251  -0.53388   0.07181
           Y            0.53387   0.80974  -0.24352
           Z            0.07186   0.24350   0.96723
 This molecule is an asymmetric top.
 Rotational symmetry number  1.
 Warning -- assumption of classical behavior for rotation
           may cause significant error
 Rotational temperatures (Kelvin)      0.00571     0.00397     0.00323
 Rotational constants (GHZ):           0.11891     0.08266     0.06721
 Zero-point vibrational energy     585411.9 (Joules/Mol)
                                  139.91680 (Kcal/Mol)
 Warning -- explicit consideration of  45 degrees of freedom as
           vibrations may cause significant error
 Vibrational temperatures:     14.46    16.51    19.81    27.98    40.25
          (Kelvin)             48.20    55.16    74.67    82.46    95.20
                              103.02   103.20   106.42   131.78   146.43
                              172.15   217.69   218.88   219.49   238.83
                              257.78   270.77   307.95   326.06   340.32
                              361.60   382.55   387.67   389.74   394.36
                              397.80   402.48   406.49   480.85   488.17
                              490.62   505.75   626.44   749.71   754.91
                              758.24   810.98   823.52   827.61   832.12
                              968.90   973.75   990.34  1013.34  1017.59
                             1029.68  1055.17  1093.34  1141.16  1193.34
                             1241.31  1242.78  1262.28  1349.85  1358.53
                             1364.08  1371.20  1394.49  1439.86  1575.42
                             1577.05  1580.05  1587.38  1601.18  1686.79
                             1706.04  1720.29  1757.81  1762.39  1795.90
                             1803.00  1805.74  1824.56  1833.29  1923.65
                             1934.51  1958.62  1987.50  2015.77  2088.69
                             2112.06  2117.93  2126.77  2159.42  2162.61
                             2174.49  2220.54  2249.60  2258.82  2312.22
                             2653.63  4435.15  4486.97  4532.78  4556.69
                             4576.85  4587.93  4701.47  4710.68  4747.49

 Zero-point correction=                           0.222972 (Hartree/Particle)
 Thermal correction to Energy=                    0.252929
 Thermal correction to Enthalpy=                  0.253873
 Thermal correction to Gibbs Free Energy=         0.151452
 Sum of electronic and zero-point Energies=          -3968.077997
 Sum of electronic and thermal Energies=             -3968.048039
 Sum of electronic and thermal Enthalpies=           -3968.047095
 Sum of electronic and thermal Free Energies=        -3968.149516

                     E (Thermal)             CV                S
                      KCal/Mol        Cal/Mol-Kelvin    Cal/Mol-Kelvin
 Total                  158.715            100.410            215.563
 Electronic               0.000              0.000              2.755
 Translational            0.889              2.981             44.921
 Rotational               0.889              2.981             37.429
 Vibrational            156.938             94.448            130.458
 Vibration     1          0.593              1.987              8.002
 Vibration     2          0.593              1.987              7.738
 Vibration     3          0.593              1.986              7.376
 Vibration     4          0.593              1.986              6.690
 Vibration     5          0.593              1.984              5.968
 Vibration     6          0.594              1.983              5.611
 Vibration     7          0.594              1.982              5.343
 Vibration     8          0.596              1.977              4.744
 Vibration     9          0.596              1.975              4.548
 Vibration    10          0.598              1.970              4.264
 Vibration    11          0.598              1.968              4.109
 Vibration    12          0.598              1.967              4.105
 Vibration    13          0.599              1.966              4.045
 Vibration    14          0.602              1.955              3.626
 Vibration    15          0.604              1.948              3.420
 Vibration    16          0.609              1.933              3.106
 Vibration    17          0.619              1.901              2.656
 Vibration    18          0.619              1.900              2.645
 Vibration    19          0.619              1.900              2.640
 Vibration    20          0.624              1.884              2.480
 Vibration    21          0.629              1.868              2.337
 Vibration    22          0.633              1.856              2.246
 Vibration    23          0.644              1.820              2.009
 Vibration    24          0.650              1.800              1.906
 Vibration    25          0.655              1.785              1.829
 Vibration    26          0.663              1.761              1.721
 Vibration    27          0.672              1.736              1.623
 Vibration    28          0.674              1.729              1.600
 Vibration    29          0.675              1.727              1.591
 Vibration    30          0.676              1.721              1.570
 Vibration    31          0.678              1.717              1.555
 Vibration    32          0.680              1.711              1.535
 Vibration    33          0.682              1.706              1.518
 Vibration    34          0.716              1.607              1.240
 Vibration    35          0.719              1.597              1.215
 Vibration    36          0.721              1.594              1.207
 Vibration    37          0.728              1.572              1.159
 Vibration    38          0.796              1.393              0.841
 Vibration    39          0.876              1.203              0.607
 Vibration    40          0.880              1.195              0.599
 Vibration    41          0.882              1.190              0.594
 Vibration    42          0.919              1.110              0.517
 Vibration    43          0.929              1.091              0.500
 Vibration    44          0.932              1.085              0.494
 Vibration    45          0.935              1.078              0.488

 Optimization completed.
    -- Stationary point found.
 Normal termination of Gaussian 16 at Tue Jan 21 18:54:01 2020.
