 Gaussian 16, Revision B.01,
 Gaussian 16:  ES64L-G16RevB.01 20-Dec-2017

 ----------------------------------------------------------------------
 # irc=(calcfc,maxpoints=120,recalc=3) ucam-b3lyp/gen nosymm scf=(qc,ma
 xcycle=1024,vshift=100) pseudo=read
 ----------------------------------------------------------------------

 -----
 IRC_8
 -----
 Symbolic Z-matrix:
 Charge =  0 Multiplicity = 4

 SCF Done:  E(UCAM-B3LYP) =  -6911.22488744     a.u. after   58 cycles
 SCF Done:  E(UCAM-B3LYP) =  -6911.22536697     a.u. after    9 cycles
 SCF Done:  E(UCAM-B3LYP) =  -6911.22682812     a.u. after   10 cycles
 SCF Done:  E(UCAM-B3LYP) =  -6911.22923392     a.u. after   10 cycles
 SCF Done:  E(UCAM-B3LYP) =  -6911.23241365     a.u. after   10 cycles
 SCF Done:  E(UCAM-B3LYP) =  -6911.23605528     a.u. after    8 cycles
 SCF Done:  E(UCAM-B3LYP) =  -6911.23973073     a.u. after    8 cycles
 SCF Done:  E(UCAM-B3LYP) =  -6911.24291666     a.u. after    8 cycles
 SCF Done:  E(UCAM-B3LYP) =  -6911.24519422     a.u. after    8 cycles
 SCF Done:  E(UCAM-B3LYP) =  -6911.24521402     a.u. after    2 cycles
 SCF Done:  E(UCAM-B3LYP) =  -6911.24554671     a.u. after    4 cycles
 SCF Done:  E(UCAM-B3LYP) =  -6911.24567517     a.u. after    4 cycles
 SCF Done:  E(UCAM-B3LYP) =  -6911.24578521     a.u. after    4 cycles
 SCF Done:  E(UCAM-B3LYP) =  -6911.24588067     a.u. after    4 cycles
 SCF Done:  E(UCAM-B3LYP) =  -6911.24596427     a.u. after    4 cycles
 SCF Done:  E(UCAM-B3LYP) =  -6911.24603805     a.u. after    4 cycles
 SCF Done:  E(UCAM-B3LYP) =  -6911.24610356     a.u. after    4 cycles
 SCF Done:  E(UCAM-B3LYP) =  -6911.24616201     a.u. after    4 cycles
 SCF Done:  E(UCAM-B3LYP) =  -6911.24621443     a.u. after    4 cycles
 SCF Done:  E(UCAM-B3LYP) =  -6911.24626170     a.u. after    4 cycles

                          Input orientation:
 ---------------------------------------------------------------------
 Center     Atomic      Atomic             Coordinates (Angstroms)
 Number     Number       Type             X           Y           Z
 ---------------------------------------------------------------------
      1          3           0       -1.214930   -6.591594   -3.553338
      2          7           0       -0.884531   -5.159626   -2.370720
      3          6           0       -1.735079   -5.444209   -1.341770
      4         17           0       -2.616252   -6.944043   -1.401030
      5          7           0        1.702340    1.067147   -2.571959
      6          6           0        2.706555    0.265883   -2.133401
      7         17           0        4.372002    0.633561   -2.420346
      8          7           0       -3.935234    0.483031    0.975232
      9          6           0       -4.141010    0.544954   -0.361173
     10         17           0       -5.517885    1.329369   -1.057725
     11          7           0       -0.865388   -3.477176   -0.896684
     12          6           0       -1.734557   -4.425595   -0.434792
     13         17           0       -2.613893   -4.270393    1.020058
     14          7           0       -2.241905   -0.562447   -0.097303
     15          6           0       -3.122019   -0.090803   -1.025471
     16         17           0       -2.916117   -0.351847   -2.722014
     17          7           0        0.828530   -0.698674   -1.459855
     18          6           0        2.187233   -0.810771   -1.459558
     19         17           0        3.000790   -2.137448   -0.724572
     20          6           0       -0.388277   -3.958256   -2.046453
     21          1           0        0.327424   -3.417930   -2.649122
     22          6           0       -2.797040   -0.191204    1.083660
     23          1           0       -2.330881   -0.443953    2.026411
     24          6           0        0.604731    0.443133   -2.147179
     25          1           0       -0.398760    0.794299   -2.345468
     26         27           0       -0.505227   -1.574821   -0.185987
     27          6           0        2.349977    0.786860    2.452617
     28          6           0        1.669972    1.600815    3.560954
     29          8           0        1.391969    0.021499    1.718780
     30          6           0        3.510645   -0.054965    2.958639
     31          1           0        0.617094    1.765186    3.352895
     32          1           0        1.782359    1.165944    4.547678
     33          1           0        3.975374   -0.584350    2.124139
     34          1           0        3.158778   -0.779712    3.693015
     35          1           0        4.260637    0.592270    3.422508
     36          1           0        2.732724    1.479596    1.700643
     37          7           0        0.531566    4.371682   -0.382415
     38          6           0        0.512651    5.349844    0.783373
     39          6           0        1.334486    6.623534    0.643330
     40          1           0        0.840562    4.785012    1.656755
     41          1           0       -0.535463    5.618977    0.929584
     42          1           0        1.264983    7.149716    1.598648
     43          1           0        2.390064    6.439872    0.449999
     44          1           0        0.947133    7.295448   -0.124022
     45          6           0        0.560345    5.128132   -1.693667
     46          6           0        0.400511    4.287601   -2.951927
     47          1           0        1.507125    5.663803   -1.717291
     48          1           0       -0.238129    5.871323   -1.624537
     49          1           0        0.604791    4.940937   -3.804012
     50          1           0        1.089773    3.440153   -3.007123
     51          1           0       -0.616585    3.911578   -3.073371
     52          6           0       -0.758718    3.554539   -0.336363
     53          6           0       -1.050427    2.826695    0.963001
     54          1           0       -0.687707    2.831926   -1.146664
     55          1           0       -1.556507    4.262760   -0.573673
     56          1           0       -2.041783    2.374900    0.869594
     57          1           0       -0.353364    2.007582    1.146298
     58          1           0       -1.076884    3.487207    1.831694
     59          6           0        1.697018    3.401097   -0.279362
     60          6           0        3.093866    3.993404   -0.264293
     61          1           0        1.592862    2.705578   -1.111744
     62          1           0        1.527335    2.846662    0.640355
     63          1           0        3.786635    3.152362   -0.350393
     64          1           0        3.298288    4.649754   -1.112977
     65          1           0        3.323941    4.511009    0.667923
     66         35           0        2.461769    3.417973    3.681256
     67          6           0        0.669339   -0.927953    2.434997
     68          8           0        0.726899   -0.935525    3.653884
     69          8           0       -0.007074   -1.693949    1.671855
 ---------------------------------------------------------------------

 Alpha  occ. eigenvalues -- -482.72584-101.65042-101.60320-101.58946-101.58619
 Alpha  occ. eigenvalues -- -101.58539-101.56742 -61.80805 -56.37769 -56.37457
 Alpha  occ. eigenvalues --  -56.37434 -19.22133 -19.17290 -19.14769 -14.55465
 Alpha  occ. eigenvalues --  -14.42824 -14.42806 -14.40096 -14.38739 -14.37481
 Alpha  occ. eigenvalues --  -14.34982 -10.37786 -10.34476 -10.34389 -10.34374
 Alpha  occ. eigenvalues --  -10.33947 -10.33504 -10.32190 -10.32089 -10.31068
 Alpha  occ. eigenvalues --  -10.30649 -10.30178 -10.30076 -10.29537 -10.29305
 Alpha  occ. eigenvalues --  -10.28450 -10.28221 -10.27799 -10.27788 -10.26654
 Alpha  occ. eigenvalues --  -10.26141 -10.22854  -9.58266  -9.53489  -9.52112
 Alpha  occ. eigenvalues --   -9.51775  -9.51771  -9.50000  -8.59018  -7.34646
 Alpha  occ. eigenvalues --   -7.33787  -7.33653  -7.29979  -7.28896  -7.28888
 Alpha  occ. eigenvalues --   -7.28559  -7.28203  -7.28200  -7.27550  -7.27534
 Alpha  occ. eigenvalues --   -7.27219  -7.27218  -7.27215  -7.27194  -7.26426
 Alpha  occ. eigenvalues --   -7.25443  -7.25424  -6.60694  -6.59569  -6.59544
 Alpha  occ. eigenvalues --   -3.92372  -2.72860  -2.72547  -2.72527  -2.71634
 Alpha  occ. eigenvalues --   -2.71634  -2.62498  -2.61846  -2.61764  -2.14783
 Alpha  occ. eigenvalues --   -1.15885  -1.12217  -1.11547  -1.07512  -1.06122
 Alpha  occ. eigenvalues --   -1.05774  -1.02700  -0.99478  -0.96545  -0.94498
 Alpha  occ. eigenvalues --   -0.93203  -0.93099  -0.91792  -0.91763  -0.90433
 Alpha  occ. eigenvalues --   -0.89731  -0.89165  -0.88860  -0.88148  -0.86617
 Alpha  occ. eigenvalues --   -0.84221  -0.82011  -0.80366  -0.76742  -0.76534
 Alpha  occ. eigenvalues --   -0.76316  -0.74907  -0.74670  -0.74098  -0.69284
 Alpha  occ. eigenvalues --   -0.67991  -0.67625  -0.65592  -0.63997  -0.62240
 Alpha  occ. eigenvalues --   -0.62154  -0.61872  -0.61281  -0.60025  -0.59934
 Alpha  occ. eigenvalues --   -0.59692  -0.59294  -0.57657  -0.56417  -0.55934
 Alpha  occ. eigenvalues --   -0.55606  -0.54672  -0.54065  -0.53522  -0.53410
 Alpha  occ. eigenvalues --   -0.52617  -0.52181  -0.51903  -0.50665  -0.50260
 Alpha  occ. eigenvalues --   -0.49966  -0.49640  -0.49410  -0.49178  -0.48711
 Alpha  occ. eigenvalues --   -0.48452  -0.48224  -0.47968  -0.47819  -0.47492
 Alpha  occ. eigenvalues --   -0.47122  -0.47003  -0.46777  -0.46698  -0.46561
 Alpha  occ. eigenvalues --   -0.46120  -0.45885  -0.45852  -0.44839  -0.44788
 Alpha  occ. eigenvalues --   -0.44131  -0.43953  -0.43780  -0.43633  -0.43555
 Alpha  occ. eigenvalues --   -0.43120  -0.42910  -0.42224  -0.41729  -0.41178
 Alpha  occ. eigenvalues --   -0.40916  -0.40709  -0.39835  -0.39595  -0.38912
 Alpha  occ. eigenvalues --   -0.38575  -0.38523  -0.37590  -0.37505  -0.37459
 Alpha  occ. eigenvalues --   -0.37038  -0.36360  -0.35588  -0.34974  -0.34935
 Alpha  occ. eigenvalues --   -0.34199  -0.33846  -0.33665  -0.32577  -0.32478
 Alpha  occ. eigenvalues --   -0.31522  -0.30874  -0.29982  -0.29283  -0.28603
 Alpha  occ. eigenvalues --   -0.28397  -0.28191  -0.24647  -0.23184
 Alpha virt. eigenvalues --   -0.04947   0.00922   0.01671   0.05332   0.05722
 Alpha virt. eigenvalues --    0.06364   0.06727   0.07880   0.08210   0.08557
 Alpha virt. eigenvalues --    0.09340   0.09761   0.09952   0.10992   0.11102

  Beta  occ. eigenvalues -- -482.72584-101.65041-101.60319-101.58944-101.58618
  Beta  occ. eigenvalues -- -101.58538-101.56741 -61.80805 -56.37769 -56.37457
  Beta  occ. eigenvalues --  -56.37434 -19.22128 -19.17054 -19.14738 -14.55465
  Beta  occ. eigenvalues --  -14.42819 -14.42679 -14.39975 -14.38590 -14.37474
  Beta  occ. eigenvalues --  -14.34975 -10.37782 -10.34476 -10.34389 -10.34366
  Beta  occ. eigenvalues --  -10.33946 -10.33504 -10.32181 -10.32089 -10.31067
  Beta  occ. eigenvalues --  -10.30648 -10.30178 -10.30065 -10.29537 -10.29306
  Beta  occ. eigenvalues --  -10.28435 -10.28209 -10.27799 -10.27788 -10.26654
  Beta  occ. eigenvalues --  -10.26129 -10.22853  -9.58265  -9.53488  -9.52110
  Beta  occ. eigenvalues --   -9.51774  -9.51770  -9.49999  -8.59018  -7.34644
  Beta  occ. eigenvalues --   -7.33786  -7.33651  -7.29977  -7.28895  -7.28887
  Beta  occ. eigenvalues --   -7.28556  -7.28200  -7.28198  -7.27548  -7.27532
  Beta  occ. eigenvalues --   -7.27219  -7.27216  -7.27213  -7.27193  -7.26425
  Beta  occ. eigenvalues --   -7.25441  -7.25423  -6.60694  -6.59569  -6.59544
  Beta  occ. eigenvalues --   -3.76903  -2.72860  -2.72547  -2.72527  -2.71634
  Beta  occ. eigenvalues --   -2.71634  -2.45518  -2.45511  -2.45446  -2.14782
  Beta  occ. eigenvalues --   -1.15778  -1.12217  -1.11465  -1.07414  -1.05921
  Beta  occ. eigenvalues --   -1.05649  -1.02414  -0.99419  -0.96522  -0.94431
  Beta  occ. eigenvalues --   -0.93172  -0.93060  -0.91730  -0.91679  -0.90433
  Beta  occ. eigenvalues --   -0.89730  -0.89164  -0.88854  -0.88065  -0.86512
  Beta  occ. eigenvalues --   -0.84221  -0.82003  -0.80328  -0.76736  -0.76526
  Beta  occ. eigenvalues --   -0.76284  -0.74880  -0.74638  -0.74095  -0.69250
  Beta  occ. eigenvalues --   -0.67880  -0.67624  -0.65513  -0.63873  -0.62201
  Beta  occ. eigenvalues --   -0.62049  -0.61869  -0.61180  -0.60022  -0.59775
  Beta  occ. eigenvalues --   -0.59562  -0.58903  -0.57654  -0.56211  -0.55670
  Beta  occ. eigenvalues --   -0.55067  -0.54334  -0.53611  -0.53414  -0.53266
  Beta  occ. eigenvalues --   -0.52547  -0.52137  -0.51848  -0.50657  -0.50022
  Beta  occ. eigenvalues --   -0.49809  -0.49437  -0.49381  -0.49032  -0.48677
  Beta  occ. eigenvalues --   -0.48057  -0.47770  -0.47699  -0.47405  -0.47076
  Beta  occ. eigenvalues --   -0.46756  -0.46582  -0.46481  -0.46212  -0.46123
  Beta  occ. eigenvalues --   -0.45864  -0.44839  -0.44635  -0.44127  -0.43972
  Beta  occ. eigenvalues --   -0.43605  -0.43540  -0.43121  -0.42907  -0.42710
  Beta  occ. eigenvalues --   -0.42011  -0.41297  -0.41023  -0.40964  -0.40301
  Beta  occ. eigenvalues --   -0.39809  -0.38941  -0.38650  -0.38543  -0.37712
  Beta  occ. eigenvalues --   -0.37257  -0.37022  -0.36520  -0.35846  -0.35748
  Beta  occ. eigenvalues --   -0.35450  -0.34561  -0.34136  -0.34053  -0.33822
  Beta  occ. eigenvalues --   -0.32747  -0.32430  -0.32053  -0.30799  -0.30074
  Beta  occ. eigenvalues --   -0.29580  -0.28953  -0.28233  -0.28114  -0.24637
  Beta  occ. eigenvalues --   -0.23177
  Beta virt. eigenvalues --   -0.04950   0.00863   0.01539   0.01866   0.02402
  Beta virt. eigenvalues --    0.02850   0.05353   0.05730   0.06490   0.06853
  Beta virt. eigenvalues --    0.07927   0.08288   0.08778   0.09748   0.09823

 Mulliken charges and spin densities:
               1          2
     1  Li   0.587166   0.000529
     2  N   -0.503804   0.001126
     3  C    0.063299   0.003918
     4  Cl   0.059896   0.001082
     5  N   -0.419402   0.002183
     6  C    0.000388   0.005645
     7  Cl  -0.033880   0.000960
     8  N   -0.384588   0.002149
     9  C   -0.000420   0.008106
    10  Cl  -0.041283   0.001224
    11  N   -0.487462   0.044292
    12  C    0.060886  -0.001344
    13  Cl   0.069522   0.000688
    14  N   -0.519527   0.059348
    15  C    0.016751  -0.003694
    16  Cl  -0.028136   0.000612
    17  N   -0.506580   0.046155
    18  C    0.052381  -0.002062
    19  Cl   0.000790   0.000894
    20  C    0.237048   0.001648
    21  H    0.148780   0.000697
    22  C    0.169610   0.003233
    23  H    0.128263   0.000311
    24  C    0.171765   0.003673
    25  H    0.105527   0.000351
    26  Co   0.793629   2.733491
    27  C    0.193101  -0.000062
    28  C   -0.191090   0.000089
    29  O   -0.492626   0.001336
    30  C   -0.343347   0.000067
    31  H    0.157945  -0.000004
    32  H    0.186776   0.000007
    33  H    0.130210  -0.000001
    34  H    0.148540   0.000009
    35  H    0.102029  -0.000008
    36  H    0.100618   0.000162
    37  N   -0.380550  -0.000001
    38  C   -0.071790   0.000001
    39  C   -0.341972  -0.000000
    40  H    0.169334   0.000000
    41  H    0.143534   0.000001
    42  H    0.142540   0.000000
    43  H    0.135657   0.000000
    44  H    0.123589   0.000000
    45  C   -0.063348  -0.000001
    46  C   -0.367891   0.000029
    47  H    0.143124  -0.000000
    48  H    0.135064   0.000002
    49  H    0.127888   0.000000
    50  H    0.187683   0.000044
    51  H    0.134644  -0.000002
    52  C   -0.081546   0.000011
    53  C   -0.368974   0.000036
    54  H    0.168797   0.000010
    55  H    0.137612   0.000002
    56  H    0.185262  -0.000025
    57  H    0.158604  -0.000126
    58  H    0.117897  -0.000000
    59  C   -0.075108   0.000029
    60  C   -0.349853   0.000001
    61  H    0.182118  -0.000012
    62  H    0.144567   0.000002
    63  H    0.164281  -0.000004
    64  H    0.115923  -0.000000
    65  H    0.129835  -0.000001
    66  Br  -0.223389   0.000036
    67  C    0.739551  -0.000883
    68  O   -0.492642   0.010100
    69  O   -0.603217   0.073945
 Sum of Mulliken charges =  -0.00000   3.00000

 Dipole moment (field-independent basis, Debye):
    X=              3.2093    Y=              0.7816    Z=            -10.3910  Tot=             10.9034
 Quadrupole moment (field-independent basis, Debye-Ang):
   XX=           -341.9602   YY=           -142.1702   ZZ=           -284.7342
   XY=             23.1013   XZ=             15.6734   YZ=             59.0546

  Exact polarizability:   0.000   0.000   0.000   0.000   0.000   0.000
 Approx polarizability: 428.566   4.388 427.789 -13.139  -1.181 432.436

 Normal termination of Gaussian 16 at Wed Mar  8 22:36:24 2023.
