 Gaussian 16, Revision B.01,
 Gaussian 16:  ES64L-G16RevB.01 20-Dec-2017

 ----------------------------------------------------------------------
 # irc=(calcfc,maxpoints=120,recalc=3) ucam-b3lyp/gen nosymm scf=(qc,ma
 xcycle=1024,vshift=100) pseudo=read
 ----------------------------------------------------------------------

 -----
 IRC_6
 -----
 Symbolic Z-matrix:
 Charge =  0 Multiplicity = 4

 SCF Done:  E(UCAM-B3LYP) =  -6911.22250605     a.u. after   51 cycles
 SCF Done:  E(UCAM-B3LYP) =  -6911.22257924     a.u. after    7 cycles
 SCF Done:  E(UCAM-B3LYP) =  -6911.22279660     a.u. after    7 cycles
 SCF Done:  E(UCAM-B3LYP) =  -6911.22314388     a.u. after    7 cycles
 SCF Done:  E(UCAM-B3LYP) =  -6911.22359469     a.u. after    7 cycles
 SCF Done:  E(UCAM-B3LYP) =  -6911.22411546     a.u. after    7 cycles
 SCF Done:  E(UCAM-B3LYP) =  -6911.22467280     a.u. after    6 cycles
 SCF Done:  E(UCAM-B3LYP) =  -6911.22523641     a.u. after    5 cycles
 SCF Done:  E(UCAM-B3LYP) =  -6911.22578241     a.u. after    5 cycles
 SCF Done:  E(UCAM-B3LYP) =  -6911.22629672     a.u. after    5 cycles
 SCF Done:  E(UCAM-B3LYP) =  -6911.22787444     a.u. after    3 cycles
 SCF Done:  E(UCAM-B3LYP) =  -6911.22795216     a.u. after    3 cycles
 SCF Done:  E(UCAM-B3LYP) =  -6911.22802517     a.u. after    3 cycles
 SCF Done:  E(UCAM-B3LYP) =  -6911.22809407     a.u. after    3 cycles
 SCF Done:  E(UCAM-B3LYP) =  -6911.22815931     a.u. after    3 cycles
 SCF Done:  E(UCAM-B3LYP) =  -6911.22822124     a.u. after    3 cycles
 SCF Done:  E(UCAM-B3LYP) =  -6911.22828019     a.u. after    3 cycles
 SCF Done:  E(UCAM-B3LYP) =  -6911.22833643     a.u. after    3 cycles
 SCF Done:  E(UCAM-B3LYP) =  -6911.22839025     a.u. after    3 cycles
 SCF Done:  E(UCAM-B3LYP) =  -6911.22844193     a.u. after    3 cycles

                          Input orientation:
 ---------------------------------------------------------------------
 Center     Atomic      Atomic             Coordinates (Angstroms)
 Number     Number       Type             X           Y           Z
 ---------------------------------------------------------------------
      1          3           0       -1.128999   -6.266260   -3.426304
      2          7           0       -0.799505   -4.834405   -2.243624
      3          6           0       -2.038140   -4.787856   -1.670276
      4         17           0       -3.175697   -6.055116   -2.052758
      5          7           0        1.788188    1.392895   -2.444999
      6          6           0        2.786212    0.527178   -2.135796
      7         17           0        4.432026    0.816291   -2.590104
      8          7           0       -3.849583    0.808336    1.102303
      9          6           0       -3.989984    0.907937   -0.237028
     10         17           0       -5.370664    1.642291   -0.980109
     11          7           0       -0.980879   -2.996769   -0.988242
     12          6           0       -2.166712   -3.672062   -0.899612
     13         17           0       -3.526399   -3.155909   -0.011885
     14          7           0       -2.050211   -0.111060    0.092358
     15          6           0       -2.906348    0.348086   -0.866852
     16         17           0       -2.645970    0.119177   -2.561252
     17          7           0        0.940391   -0.348121   -1.269713
     18          6           0        2.282370   -0.533165   -1.422606
     19         17           0        3.097942   -1.929278   -0.820246
     20          6           0       -0.207991   -3.722466   -1.797141
     21          1           0        0.801350   -3.435448   -2.054854
     22          6           0       -2.686646    0.192462    1.249500
     23          1           0       -2.285493   -0.095720    2.210920
     24          6           0        0.710428    0.816597   -1.911069
     25          1           0       -0.284930    1.227538   -1.988587
     26         27           0       -0.411382   -1.293262    0.002866
     27          6           0        1.692489   -0.094486    2.384707
     28          6           0        0.930278    0.812076    3.350505
     29          8           0        0.748154   -0.981332    1.783462
     30          6           0        2.854268   -0.843435    3.014791
     31          1           0        0.009985    1.175674    2.896689
     32          1           0        0.714363    0.313932    4.290270
     33          1           0        3.348811   -1.452735    2.255822
     34          1           0        2.488657   -1.489868    3.812424
     35          1           0        3.581118   -0.136317    3.422643
     36          1           0        2.055681    0.505331    1.544531
     37          7           0        1.742281    4.563112   -0.148603
     38          6           0        1.457134    5.381267    1.104221
     39          6           0        2.463157    6.454375    1.494697
     40          1           0        1.341977    4.656706    1.911034
     41          1           0        0.486531    5.852543    0.938087
     42          1           0        2.144147    6.848593    2.462813
     43          1           0        3.477899    6.077742    1.616113
     44          1           0        2.478883    7.292395    0.796034
     45          6           0        2.371515    5.430627   -1.218766
     46          6           0        2.807020    4.709072   -2.485302
     47          1           0        3.231546    5.917562   -0.764426
     48          1           0        1.632996    6.205738   -1.438698
     49          1           0        3.105142    5.473733   -3.207028
     50          1           0        3.668509    4.061621   -2.315426
     51          1           0        2.031724    4.093603   -2.940254
     52          6           0        0.402924    4.054599   -0.686963
     53          6           0       -0.447606    3.254128    0.284040
     54          1           0        0.644695    3.444363   -1.555005
     55          1           0       -0.129815    4.949272   -1.017341
     56          1           0       -1.382169    3.004170   -0.225219
     57          1           0        0.008045    2.302272    0.556080
     58          1           0       -0.710748    3.803342    1.189261
     59          6           0        2.608371    3.351464    0.154018
     60          6           0        4.022871    3.626830    0.628351
     61          1           0        2.602864    2.755316   -0.757608
     62          1           0        2.077815    2.796289    0.924487
     63          1           0        4.539592    2.664544    0.651512
     64          1           0        4.589554    4.276451   -0.041991
     65          1           0        4.054429    4.030817    1.640926
     66         35           0        1.974069    2.421517    3.799270
     67          6           0       -0.100081   -1.859908    2.607744
     68          8           0        0.126454   -1.922462    3.798095
     69          8           0       -0.936358   -2.355817    1.825580
 ---------------------------------------------------------------------

 Alpha  occ. eigenvalues -- -482.73522-101.64618-101.60070-101.59464-101.58862
 Alpha  occ. eigenvalues -- -101.57679-101.55855 -61.81725 -56.38700 -56.38379
 Alpha  occ. eigenvalues --  -56.38360 -19.23330 -19.16014 -19.15380 -14.56224
 Alpha  occ. eigenvalues --  -14.41988 -14.41764 -14.40417 -14.37919 -14.37752
 Alpha  occ. eigenvalues --  -14.33970 -10.37488 -10.35191 -10.35159 -10.33911
 Alpha  occ. eigenvalues --  -10.33461 -10.33162 -10.32973 -10.31839 -10.31358
 Alpha  occ. eigenvalues --  -10.31336 -10.30817 -10.30495 -10.30324 -10.28893
 Alpha  occ. eigenvalues --  -10.28461 -10.28404 -10.28387 -10.27628 -10.27491
 Alpha  occ. eigenvalues --  -10.25280 -10.23053  -9.57861  -9.53218  -9.52684
 Alpha  occ. eigenvalues --   -9.52010  -9.50833  -9.49113  -8.59929  -7.34228
 Alpha  occ. eigenvalues --   -7.33392  -7.33246  -7.29656  -7.29109  -7.28663
 Alpha  occ. eigenvalues --   -7.28646  -7.28513  -7.28135  -7.28110  -7.27418
 Alpha  occ. eigenvalues --   -7.27397  -7.27261  -7.26278  -7.26270  -7.25538
 Alpha  occ. eigenvalues --   -7.24556  -7.24538  -6.61619  -6.60471  -6.60448
 Alpha  occ. eigenvalues --   -3.92481  -2.73784  -2.73461  -2.73444  -2.72532
 Alpha  occ. eigenvalues --   -2.72532  -2.63157  -2.62332  -2.60937  -2.13892
 Alpha  occ. eigenvalues --   -1.15544  -1.12920  -1.10750  -1.08012  -1.06382
 Alpha  occ. eigenvalues --   -1.04893  -1.03522  -0.98846  -0.95546  -0.95210
 Alpha  occ. eigenvalues --   -0.94003  -0.92209  -0.91217  -0.90914  -0.90808
 Alpha  occ. eigenvalues --   -0.90432  -0.90009  -0.89602  -0.88831  -0.85733
 Alpha  occ. eigenvalues --   -0.85027  -0.82314  -0.79529  -0.77594  -0.77273
 Alpha  occ. eigenvalues --   -0.76956  -0.75340  -0.74954  -0.73895  -0.69021
 Alpha  occ. eigenvalues --   -0.68576  -0.67185  -0.64871  -0.64434  -0.63025
 Alpha  occ. eigenvalues --   -0.62462  -0.61809  -0.61327  -0.60750  -0.59143
 Alpha  occ. eigenvalues --   -0.58810  -0.58654  -0.58441  -0.57280  -0.56278
 Alpha  occ. eigenvalues --   -0.56034  -0.54472  -0.53930  -0.53453  -0.53308
 Alpha  occ. eigenvalues --   -0.52708  -0.51992  -0.51471  -0.51212  -0.50821
 Alpha  occ. eigenvalues --   -0.50413  -0.50172  -0.49685  -0.49195  -0.49000
 Alpha  occ. eigenvalues --   -0.48824  -0.48561  -0.48246  -0.48146  -0.47979
 Alpha  occ. eigenvalues --   -0.47904  -0.47271  -0.46915  -0.46525  -0.46365
 Alpha  occ. eigenvalues --   -0.46245  -0.45740  -0.45695  -0.45339  -0.44839
 Alpha  occ. eigenvalues --   -0.44599  -0.44542  -0.44091  -0.43897  -0.43755
 Alpha  occ. eigenvalues --   -0.43285  -0.43222  -0.42619  -0.42130  -0.41526
 Alpha  occ. eigenvalues --   -0.41030  -0.40381  -0.40041  -0.39893  -0.39351
 Alpha  occ. eigenvalues --   -0.39209  -0.38413  -0.37615  -0.37460  -0.36836
 Alpha  occ. eigenvalues --   -0.36470  -0.35974  -0.35582  -0.34996  -0.34605
 Alpha  occ. eigenvalues --   -0.34519  -0.33554  -0.33275  -0.32659  -0.32391
 Alpha  occ. eigenvalues --   -0.31542  -0.30634  -0.30302  -0.28715  -0.28095
 Alpha  occ. eigenvalues --   -0.27497  -0.27265  -0.25348  -0.22243
 Alpha virt. eigenvalues --   -0.04224   0.01631   0.02407   0.04674   0.06378
 Alpha virt. eigenvalues --    0.06907   0.07209   0.07337   0.08087   0.08865
 Alpha virt. eigenvalues --    0.09363   0.09440   0.10095   0.10413   0.10709

  Beta  occ. eigenvalues -- -482.73522-101.64617-101.60069-101.59463-101.58861
  Beta  occ. eigenvalues -- -101.57678-101.55854 -61.81725 -56.38700 -56.38379
  Beta  occ. eigenvalues --  -56.38360 -19.23202 -19.15879 -19.15362 -14.56224
  Beta  occ. eigenvalues --  -14.41978 -14.41628 -14.40299 -14.37916 -14.37595
  Beta  occ. eigenvalues --  -14.33961 -10.37490 -10.35191 -10.35159 -10.33911
  Beta  occ. eigenvalues --  -10.33455 -10.33162 -10.32971 -10.31827 -10.31354
  Beta  occ. eigenvalues --  -10.31324 -10.30808 -10.30495 -10.30324 -10.28893
  Beta  occ. eigenvalues --  -10.28461 -10.28399 -10.28384 -10.27629 -10.27479
  Beta  occ. eigenvalues --  -10.25275 -10.23051  -9.57860  -9.53216  -9.52683
  Beta  occ. eigenvalues --   -9.52009  -9.50832  -9.49112  -8.59929  -7.34226
  Beta  occ. eigenvalues --   -7.33391  -7.33245  -7.29655  -7.29107  -7.28662
  Beta  occ. eigenvalues --   -7.28644  -7.28510  -7.28134  -7.28109  -7.27417
  Beta  occ. eigenvalues --   -7.27397  -7.27260  -7.26278  -7.26269  -7.25537
  Beta  occ. eigenvalues --   -7.24554  -7.24537  -6.61619  -6.60471  -6.60448
  Beta  occ. eigenvalues --   -3.76839  -2.73783  -2.73461  -2.73443  -2.72532
  Beta  occ. eigenvalues --   -2.72532  -2.45608  -2.45525  -2.45101  -2.13891
  Beta  occ. eigenvalues --   -1.15386  -1.12920  -1.10659  -1.07930  -1.06214
  Beta  occ. eigenvalues --   -1.04773  -1.03355  -0.98787  -0.95510  -0.95158
  Beta  occ. eigenvalues --   -0.93978  -0.92163  -0.91217  -0.90851  -0.90719
  Beta  occ. eigenvalues --   -0.90432  -0.90006  -0.89581  -0.88754  -0.85626
  Beta  occ. eigenvalues --   -0.85027  -0.82271  -0.79488  -0.77593  -0.77271
  Beta  occ. eigenvalues --   -0.76918  -0.75339  -0.74943  -0.73840  -0.68966
  Beta  occ. eigenvalues --   -0.68561  -0.67065  -0.64789  -0.64338  -0.63025
  Beta  occ. eigenvalues --   -0.62450  -0.61742  -0.61180  -0.60750  -0.58960
  Beta  occ. eigenvalues --   -0.58687  -0.58601  -0.58404  -0.57160  -0.55943
  Beta  occ. eigenvalues --   -0.55779  -0.54459  -0.53553  -0.53415  -0.53008
  Beta  occ. eigenvalues --   -0.52425  -0.51649  -0.51465  -0.51140  -0.50324
  Beta  occ. eigenvalues --   -0.50184  -0.50015  -0.49638  -0.49045  -0.48886
  Beta  occ. eigenvalues --   -0.48779  -0.48479  -0.48134  -0.47930  -0.47806
  Beta  occ. eigenvalues --   -0.47162  -0.46701  -0.46439  -0.46180  -0.45715
  Beta  occ. eigenvalues --   -0.45682  -0.45579  -0.44831  -0.44540  -0.44126
  Beta  occ. eigenvalues --   -0.44036  -0.43856  -0.43295  -0.43235  -0.42596
  Beta  occ. eigenvalues --   -0.42158  -0.41919  -0.40932  -0.40509  -0.40218
  Beta  occ. eigenvalues --   -0.39890  -0.39623  -0.39411  -0.37962  -0.37617
  Beta  occ. eigenvalues --   -0.37061  -0.36514  -0.36095  -0.35630  -0.35499
  Beta  occ. eigenvalues --   -0.35152  -0.34564  -0.34355  -0.33461  -0.33275
  Beta  occ. eigenvalues --   -0.33103  -0.32729  -0.31912  -0.30484  -0.30082
  Beta  occ. eigenvalues --   -0.29378  -0.28777  -0.27285  -0.27100  -0.25320
  Beta  occ. eigenvalues --   -0.22221
  Beta virt. eigenvalues --   -0.04227   0.00556   0.01753   0.02222   0.02483
  Beta virt. eigenvalues --    0.04170   0.05122   0.06398   0.07012   0.07335
  Beta virt. eigenvalues --    0.07465   0.08240   0.08903   0.09479   0.09653

 Mulliken charges and spin densities:
               1          2
     1  Li   0.548270   0.000646
     2  N   -0.500065   0.003054
     3  C    0.061140   0.002916
     4  Cl   0.079100   0.001043
     5  N   -0.425213   0.000778
     6  C   -0.013642   0.004906
     7  Cl  -0.037549   0.001053
     8  N   -0.379280   0.003541
     9  C    0.006628   0.006175
    10  Cl  -0.043818   0.001203
    11  N   -0.479317   0.046239
    12  C    0.078230  -0.000047
    13  Cl   0.078918   0.000751
    14  N   -0.512583   0.062078
    15  C    0.007254  -0.002224
    16  Cl  -0.025278   0.000367
    17  N   -0.485049   0.040243
    18  C    0.029361  -0.001596
    19  Cl  -0.005226   0.000450
    20  C    0.230708   0.004327
    21  H    0.140651   0.000555
    22  C    0.180460   0.001039
    23  H    0.104255   0.000312
    24  C    0.181260   0.001134
    25  H    0.109612   0.000527
    26  Co   0.730623   2.748707
    27  C    0.204342   0.003999
    28  C   -0.215785   0.000270
    29  O   -0.580955   0.025510
    30  C   -0.337929   0.000745
    31  H    0.162441   0.000014
    32  H    0.202315  -0.000002
    33  H    0.128622   0.000008
    34  H    0.154092  -0.000030
    35  H    0.102751   0.000520
    36  H    0.098565   0.000291
    37  N   -0.381339  -0.000002
    38  C   -0.069616   0.000001
    39  C   -0.346857   0.000000
    40  H    0.169579   0.000000
    41  H    0.146174   0.000000
    42  H    0.145194   0.000000
    43  H    0.134809   0.000000
    44  H    0.127617  -0.000000
    45  C   -0.068114  -0.000000
    46  C   -0.348714   0.000012
    47  H    0.144185   0.000000
    48  H    0.135295   0.000000
    49  H    0.126976   0.000002
    50  H    0.148765  -0.000002
    51  H    0.171318   0.000021
    52  C   -0.087487   0.000008
    53  C   -0.353647   0.000061
    54  H    0.180724   0.000016
    55  H    0.132033   0.000001
    56  H    0.176860   0.000011
    57  H    0.151191  -0.000332
    58  H    0.126444   0.000000
    59  C   -0.081098   0.000021
    60  C   -0.343312   0.000000
    61  H    0.187755  -0.000021
    62  H    0.148627   0.000005
    63  H    0.160198  -0.000001
    64  H    0.116932   0.000000
    65  H    0.127722  -0.000001
    66  Br  -0.205432   0.000371
    67  C    0.756134  -0.001422
    68  O   -0.489911   0.006028
    69  O   -0.516915   0.035719
 Sum of Mulliken charges =   0.00000   3.00000

 Dipole moment (field-independent basis, Debye):
    X=              9.6330    Y=              3.7164    Z=             -8.7444  Tot=             13.5304
 Quadrupole moment (field-independent basis, Debye-Ang):
   XX=           -332.5953   YY=           -146.8376   ZZ=           -293.1039
   XY=             39.7086   XZ=             17.7998   YZ=             63.6384

  Exact polarizability:   0.000   0.000   0.000   0.000   0.000   0.000
 Approx polarizability: 457.350  -3.635 420.892 -12.781   6.633 416.255

 Normal termination of Gaussian 16 at Wed Mar  8 12:13:19 2023.
