 Gaussian 16, Revision B.01,
 Gaussian 16:  ES64L-G16RevB.01 20-Dec-2017

 ----------------------------------------------------------------------
 # irc=(calcfc,maxpoints=120,recalc=3) ucam-b3lyp/gen nosymm scf=(qc,ma
 xcycle=1024,vshift=100) pseudo=read
 ----------------------------------------------------------------------

 -----
 IRC_3
 -----
 Symbolic Z-matrix:
 Charge =  0 Multiplicity = 4

 SCF Done:  E(UCAM-B3LYP) =  -6722.68614475     a.u. after   55 cycles
 SCF Done:  E(UCAM-B3LYP) =  -6722.68655940     a.u. after   10 cycles
 SCF Done:  E(UCAM-B3LYP) =  -6722.68775296     a.u. after    8 cycles
 SCF Done:  E(UCAM-B3LYP) =  -6722.68953185     a.u. after    9 cycles
 SCF Done:  E(UCAM-B3LYP) =  -6722.69153330     a.u. after    9 cycles
 SCF Done:  E(UCAM-B3LYP) =  -6722.69326711     a.u. after    9 cycles
 SCF Done:  E(UCAM-B3LYP) =  -6722.69327942     a.u. after    2 cycles
 SCF Done:  E(UCAM-B3LYP) =  -6722.69440239     a.u. after    7 cycles
 SCF Done:  E(UCAM-B3LYP) =  -6722.69442725     a.u. after    3 cycles
 SCF Done:  E(UCAM-B3LYP) =  -6722.69521690     a.u. after    5 cycles
 SCF Done:  E(UCAM-B3LYP) =  -6722.70897979     a.u. after    4 cycles
 SCF Done:  E(UCAM-B3LYP) =  -6722.70908506     a.u. after    4 cycles
 SCF Done:  E(UCAM-B3LYP) =  -6722.70917764     a.u. after    4 cycles
 SCF Done:  E(UCAM-B3LYP) =  -6722.70925868     a.u. after    4 cycles
 SCF Done:  E(UCAM-B3LYP) =  -6722.70933026     a.u. after    4 cycles
 SCF Done:  E(UCAM-B3LYP) =  -6722.70939439     a.u. after    4 cycles
 SCF Done:  E(UCAM-B3LYP) =  -6722.70945277     a.u. after    4 cycles
 SCF Done:  E(UCAM-B3LYP) =  -6722.70950727     a.u. after    4 cycles
 SCF Done:  E(UCAM-B3LYP) =  -6722.70955902     a.u. after    4 cycles
 SCF Done:  E(UCAM-B3LYP) =  -6722.70960858     a.u. after    4 cycles

                          Input orientation:
 ---------------------------------------------------------------------
 Center     Atomic      Atomic             Coordinates (Angstroms)
 Number     Number       Type             X           Y           Z
 ---------------------------------------------------------------------
      1          3           0       -1.573534   -6.191132   -3.277248
      2          7           0       -1.243135   -4.759164   -2.094630
      3          6           0       -1.917012   -5.142301   -0.971231
      4         17           0       -2.652848   -6.720729   -0.959407
      5          7           0        1.343736    1.467609   -2.295869
      6          6           0        2.257068    0.466404   -2.233960
      7         17           0        3.846906    0.613981   -2.915218
      8          7           0       -4.293838    0.883493    1.251322
      9          6           0       -4.515345    0.818448   -0.081163
     10         17           0       -5.940277    1.465902   -0.822552
     11          7           0       -1.182138   -3.106672   -0.584034
     12          6           0       -1.888628   -4.142408   -0.043259
     13         17           0       -2.577922   -4.095530    1.519959
     14          7           0       -2.555826   -0.160821    0.244860
     15          6           0       -3.469686    0.184415   -0.705258
     16         17           0       -3.247333   -0.185145   -2.379727
     17          7           0        0.459543   -0.304372   -1.196639
     18          6           0        1.734633   -0.610894   -1.562293
     19         17           0        2.483128   -2.117728   -1.187077
     20          6           0       -0.823886   -3.519595   -1.800393
     21          1           0       -0.249419   -2.904254   -2.476719
     22          6           0       -3.118169    0.285637    1.396770
     23          1           0       -2.630264    0.137663    2.350781
     24          6           0        0.286712    0.948661   -1.666737
     25          1           0       -0.653305    1.469518   -1.543825
     26         27           0       -0.824561   -1.197144    0.168672
     27          6           0        1.073423   -0.447824    2.236909
     28          6           0        0.487509    0.743419    2.999811
     29          8           0       -0.013783   -1.208505    1.853115
     30          6           0        2.027218   -1.275028    3.092480
     31          1           0       -0.243670    1.276743    2.395945
     32          1           0        0.039966    0.436687    3.944024
     33          1           0        2.392388   -2.118527    2.502404
     34          1           0        1.488917   -1.674504    3.957526
     35          1           0        2.882711   -0.691022    3.443796
     36          1           0        1.635359   -0.049128    1.370947
     37          7           0        2.744826    4.418139   -0.164077
     38          6           0        2.721421    5.222462    1.126085
     39          6           0        4.024408    5.865428    1.580245
     40          1           0        2.338159    4.545556    1.890720
     41          1           0        1.978247    6.007509    0.971283
     42          1           0        3.831412    6.314928    2.557492
     43          1           0        4.840840    5.156118    1.705073
     44          1           0        4.353172    6.666946    0.916855
     45          6           0        3.623900    5.108997   -1.181769
     46          6           0        3.667641    4.472064   -2.560467
     47          1           0        4.625118    5.145078   -0.757254
     48          1           0        3.253834    6.136002   -1.241262
     49          1           0        4.353712    5.065446   -3.170260
     50          1           0        4.041518    3.447754   -2.542015
     51          1           0        2.699659    4.465792   -3.061200
     52          6           0        1.322198    4.372559   -0.725472
     53          6           0        0.239024    3.948190    0.250932
     54          1           0        1.347233    3.668607   -1.559606
     55          1           0        1.127621    5.381013   -1.099830
     56          1           0       -0.703926    3.948458   -0.301131
     57          1           0        0.384644    2.934026    0.622505
     58          1           0        0.120227    4.623429    1.099236
     59          6           0        3.181741    2.978689    0.071854
     60          6           0        4.602688    2.752801    0.551682
     61          1           0        2.998761    2.462433   -0.866460
     62          1           0        2.490564    2.577082    0.810573
     63          1           0        4.768137    1.673291    0.523081
     64          1           0        5.361685    3.208075   -0.088532
     65          1           0        4.755917    3.069886    1.583922
     66         35           0        1.847704    2.118940    3.502191
 ---------------------------------------------------------------------

 Alpha  occ. eigenvalues -- -482.71435-101.64274-101.59650-101.59353-101.58961
 Alpha  occ. eigenvalues -- -101.56790-101.55031 -61.79630 -56.36592 -56.36296
 Alpha  occ. eigenvalues --  -56.36273 -19.13069 -14.55764 -14.41859 -14.41609
 Alpha  occ. eigenvalues --  -14.39469 -14.37305 -14.36994 -14.33215 -10.34940
 Alpha  occ. eigenvalues --  -10.34776 -10.33476 -10.33245 -10.33012 -10.32438
 Alpha  occ. eigenvalues --  -10.31073 -10.30523 -10.30113 -10.29950 -10.28520
 Alpha  occ. eigenvalues --  -10.28406 -10.28309 -10.27741 -10.27606 -10.27469
 Alpha  occ. eigenvalues --  -10.27241 -10.26632 -10.24563 -10.20688  -9.57494
 Alpha  occ. eigenvalues --   -9.52830  -9.52550  -9.52132  -9.49957  -9.48292
 Alpha  occ. eigenvalues --   -8.57814  -7.33872  -7.33017  -7.32884  -7.29312
 Alpha  occ. eigenvalues --   -7.28965  -7.28576  -7.28240  -7.28233  -7.28012
 Alpha  occ. eigenvalues --   -7.27980  -7.27570  -7.27556  -7.26384  -7.25400
 Alpha  occ. eigenvalues --   -7.25397  -7.24715  -7.23734  -7.23718  -6.59449
 Alpha  occ. eigenvalues --   -6.58392  -6.58359  -3.89422  -2.71623  -2.71330
 Alpha  occ. eigenvalues --   -2.71303  -2.70465  -2.70465  -2.60139  -2.59191
 Alpha  occ. eigenvalues --   -2.57948  -2.14095  -1.12501  -1.10506  -1.07211
 Alpha  occ. eigenvalues --   -1.03981  -1.00920  -0.98578  -0.95678  -0.94462
 Alpha  occ. eigenvalues --   -0.93371  -0.91353  -0.90868  -0.90862  -0.90159
 Alpha  occ. eigenvalues --   -0.89998  -0.89431  -0.88130  -0.86090  -0.84856
 Alpha  occ. eigenvalues --   -0.84712  -0.79390  -0.77938  -0.77251  -0.76925
 Alpha  occ. eigenvalues --   -0.76207  -0.75006  -0.73029  -0.72374  -0.68158
 Alpha  occ. eigenvalues --   -0.66968  -0.64612  -0.63633  -0.62546  -0.62083
 Alpha  occ. eigenvalues --   -0.61606  -0.61089  -0.60457  -0.60344  -0.58889
 Alpha  occ. eigenvalues --   -0.58095  -0.57899  -0.56603  -0.55456  -0.54029
 Alpha  occ. eigenvalues --   -0.53242  -0.53004  -0.52533  -0.52480  -0.51182
 Alpha  occ. eigenvalues --   -0.51042  -0.49928  -0.49791  -0.49596  -0.49224
 Alpha  occ. eigenvalues --   -0.48712  -0.48667  -0.48372  -0.47988  -0.47773
 Alpha  occ. eigenvalues --   -0.47497  -0.47418  -0.46790  -0.46514  -0.46387
 Alpha  occ. eigenvalues --   -0.45489  -0.45324  -0.45027  -0.44890  -0.44748
 Alpha  occ. eigenvalues --   -0.44242  -0.44074  -0.43749  -0.43485  -0.43192
 Alpha  occ. eigenvalues --   -0.42566  -0.42246  -0.42084  -0.41397  -0.40846
 Alpha  occ. eigenvalues --   -0.40411  -0.39876  -0.39708  -0.38891  -0.38250
 Alpha  occ. eigenvalues --   -0.38159  -0.37616  -0.36886  -0.36778  -0.36649
 Alpha  occ. eigenvalues --   -0.35795  -0.35618  -0.35017  -0.34051  -0.33678
 Alpha  occ. eigenvalues --   -0.33087  -0.32856  -0.32723  -0.32081  -0.31077
 Alpha  occ. eigenvalues --   -0.29808  -0.28248  -0.27307  -0.26621  -0.26254
 Alpha  occ. eigenvalues --   -0.25581  -0.24573  -0.21372
 Alpha virt. eigenvalues --   -0.04462   0.01510   0.02216   0.06097   0.06391
 Alpha virt. eigenvalues --    0.07021   0.07606   0.07696   0.08332   0.08564
 Alpha virt. eigenvalues --    0.09369   0.10258   0.10409   0.11087   0.11287

  Beta  occ. eigenvalues -- -482.71435-101.64273-101.59649-101.59352-101.58960
  Beta  occ. eigenvalues -- -101.56789-101.55030 -61.79630 -56.36591 -56.36296
  Beta  occ. eigenvalues --  -56.36273 -19.12677 -14.55764 -14.41854 -14.41495
  Beta  occ. eigenvalues --  -14.39348 -14.37300 -14.36857 -14.33209 -10.34940
  Beta  occ. eigenvalues --  -10.34776 -10.33469 -10.33245 -10.33012 -10.32437
  Beta  occ. eigenvalues --  -10.31066 -10.30523 -10.30102 -10.29950 -10.28520
  Beta  occ. eigenvalues --  -10.28401 -10.28309 -10.27734 -10.27606 -10.27469
  Beta  occ. eigenvalues --  -10.27241 -10.26619 -10.24552 -10.20677  -9.57493
  Beta  occ. eigenvalues --   -9.52829  -9.52549  -9.52131  -9.49955  -9.48290
  Beta  occ. eigenvalues --   -8.57813  -7.33870  -7.33016  -7.32883  -7.29310
  Beta  occ. eigenvalues --   -7.28963  -7.28574  -7.28238  -7.28232  -7.28011
  Beta  occ. eigenvalues --   -7.27979  -7.27570  -7.27555  -7.26382  -7.25398
  Beta  occ. eigenvalues --   -7.25396  -7.24713  -7.23732  -7.23717  -6.59448
  Beta  occ. eigenvalues --   -6.58392  -6.58359  -3.74125  -2.71623  -2.71330
  Beta  occ. eigenvalues --   -2.71303  -2.70465  -2.70465  -2.42803  -2.42776
  Beta  occ. eigenvalues --   -2.42635  -2.14094  -1.12501  -1.10434  -1.07127
  Beta  occ. eigenvalues --   -1.03868  -1.00151  -0.98528  -0.95658  -0.94403
  Beta  occ. eigenvalues --   -0.93358  -0.91308  -0.90868  -0.90786  -0.90159
  Beta  occ. eigenvalues --   -0.89943  -0.89431  -0.88050  -0.86009  -0.84761
  Beta  occ. eigenvalues --   -0.84711  -0.79357  -0.77770  -0.77249  -0.76924
  Beta  occ. eigenvalues --   -0.76169  -0.75006  -0.72975  -0.72342  -0.68157
  Beta  occ. eigenvalues --   -0.66876  -0.64545  -0.63540  -0.62543  -0.62079
  Beta  occ. eigenvalues --   -0.61448  -0.61022  -0.60348  -0.60312  -0.58738
  Beta  occ. eigenvalues --   -0.58094  -0.57795  -0.56532  -0.55309  -0.54016
  Beta  occ. eigenvalues --   -0.53190  -0.52684  -0.52433  -0.52056  -0.51178
  Beta  occ. eigenvalues --   -0.50996  -0.49915  -0.49634  -0.49312  -0.48715
  Beta  occ. eigenvalues --   -0.48608  -0.48489  -0.48297  -0.47929  -0.47694
  Beta  occ. eigenvalues --   -0.47462  -0.47177  -0.46458  -0.46351  -0.45432
  Beta  occ. eigenvalues --   -0.45295  -0.45170  -0.44758  -0.44740  -0.44072
  Beta  occ. eigenvalues --   -0.43802  -0.43503  -0.42991  -0.42370  -0.42089
  Beta  occ. eigenvalues --   -0.41943  -0.40444  -0.40376  -0.40119  -0.39739
  Beta  occ. eigenvalues --   -0.39501  -0.39223  -0.38911  -0.38750  -0.36948
  Beta  occ. eigenvalues --   -0.36783  -0.36667  -0.36160  -0.35742  -0.34782
  Beta  occ. eigenvalues --   -0.33845  -0.33373  -0.32737  -0.32604  -0.32407
  Beta  occ. eigenvalues --   -0.32056  -0.31273  -0.29700  -0.28378  -0.27904
  Beta  occ. eigenvalues --   -0.27306  -0.26003  -0.25399  -0.24588  -0.21357
  Beta virt. eigenvalues --   -0.04465   0.01489   0.02169   0.03906   0.04828
  Beta virt. eigenvalues --    0.05354   0.06379   0.06485   0.07236   0.07700
  Beta virt. eigenvalues --    0.07790   0.08455   0.08780   0.09506   0.10475

 Mulliken charges and spin densities:
               1          2
     1  Li   0.586207   0.000490
     2  N   -0.506103   0.001084
     3  C    0.062204   0.003343
     4  Cl   0.049641   0.001000
     5  N   -0.427971   0.001311
     6  C   -0.016173   0.005383
     7  Cl  -0.045182   0.000890
     8  N   -0.384019   0.001763
     9  C    0.009418   0.007209
    10  Cl  -0.047984   0.001158
    11  N   -0.471320   0.037560
    12  C    0.057499  -0.001068
    13  Cl   0.058526   0.000954
    14  N   -0.524403   0.053735
    15  C    0.026125  -0.002862
    16  Cl  -0.036573   0.000572
    17  N   -0.485391   0.040167
    18  C    0.033858  -0.002299
    19  Cl  -0.006231   0.000565
    20  C    0.239984   0.001668
    21  H    0.143015   0.000630
    22  C    0.178786   0.002612
    23  H    0.103041   0.000445
    24  C    0.179297   0.001949
    25  H    0.118467   0.000556
    26  Co   0.741031   2.692951
    27  C    0.255523  -0.004812
    28  C   -0.187671   0.002930
    29  O   -0.677126   0.137856
    30  C   -0.318364   0.004289
    31  H    0.155099  -0.000424
    32  H    0.157931  -0.000185
    33  H    0.117806  -0.000286
    34  H    0.103908  -0.000148
    35  H    0.085871   0.001504
    36  H    0.054130   0.006342
    37  N   -0.378944  -0.000008
    38  C   -0.070955   0.000008
    39  C   -0.344144   0.000001
    40  H    0.172506   0.000022
    41  H    0.141366   0.000001
    42  H    0.143541  -0.000000
    43  H    0.135254   0.000000
    44  H    0.124144   0.000000
    45  C   -0.067179   0.000002
    46  C   -0.345712   0.000006
    47  H    0.143752  -0.000000
    48  H    0.133904  -0.000000
    49  H    0.127240   0.000003
    50  H    0.159085  -0.000000
    51  H    0.151114   0.000001
    52  C   -0.094868   0.000027
    53  C   -0.347373   0.000013
    54  H    0.199641   0.000060
    55  H    0.124055   0.000000
    56  H    0.157041   0.000001
    57  H    0.157177   0.000003
    58  H    0.122914   0.000004
    59  C   -0.076553   0.000110
    60  C   -0.345881   0.000004
    61  H    0.176285   0.000009
    62  H    0.164337  -0.000010
    63  H    0.163775  -0.000004
    64  H    0.114157   0.000001
    65  H    0.128541   0.000001
    66  Br  -0.251073   0.000914
 Sum of Mulliken charges =   0.00000   3.00000

 Dipole moment (field-independent basis, Debye):
    X=             11.8855    Y=              1.1672    Z=             -7.5295  Tot=             14.1181
 Quadrupole moment (field-independent basis, Debye-Ang):
   XX=           -307.4433   YY=           -137.0459   ZZ=           -265.7522
   XY=             66.0698   XZ=             17.1681   YZ=             52.4943

  Exact polarizability:   0.000   0.000   0.000   0.000   0.000   0.000
 Approx polarizability: 411.699   2.474 417.067 -20.678   7.403 416.984

 Normal termination of Gaussian 16 at Tue Mar  7 13:10:13 2023.
