 Gaussian 16, Revision A.03,
 Gaussian 16:  ES64L-G16RevA.03 25-Dec-2016

 ------------------------------------------------------------------
 # opt=(calcfc,tight) freq cam-b3lyp/gen nosymm pseudo=read scf=xqc
 ------------------------------------------------------------------

 -----------------
 PC_opt_freq_6_31G
 -----------------
 Symbolic Z-matrix:
 Charge =  0 Multiplicity = 1

 SCF Done:  E(RCAM-B3LYP) =  -381.563554576     A.U. after   14 cycles
 Optimization completed.
    -- Stationary point found.
 Normal termination of Gaussian 16 at Thu Aug 22 12:00:10 2019.

 ----------------------------------------------------------------------
 #N Geom=AllCheck Guess=TCheck SCRF=Check GenChk RCAM-B3LYP/ChkBas Freq
 ----------------------------------------------------------------------

 Structure from the checkpoint file:  "PC_opt_freq_6_31G.chk"
 -----------------
 PC_opt_freq_6_31G
 -----------------
 Charge =  0 Multiplicity = 1

                          Input orientation:
 ---------------------------------------------------------------------
 Center     Atomic      Atomic             Coordinates (Angstroms)
 Number     Number       Type             X           Y           Z
 ---------------------------------------------------------------------
      1          6           0        1.005343    1.503000   -0.472781
      2          6           0       -0.464061    1.096315   -0.349937
      3          8           0        1.666818    0.423408    0.200915
      4          6           0        1.367563    2.819668    0.172243
      5          1           0       -1.051547    1.303331   -1.245048
      6          1           0       -0.944899    1.561064    0.518204
      7          1           0        2.441754    2.999944    0.101811
      8          1           0        1.083616    2.817902    1.227477
      9          1           0        0.848512    3.640788   -0.330307
     10          1           0        1.325847    1.483515   -1.520988
     11          6           0        0.843998   -0.648711    0.272614
     12          8           0       -0.398980   -0.312634   -0.151539
     13          8           0        1.162414   -1.731257    0.652445
 ---------------------------------------------------------------------

 SCF Done:  E(RCAM-B3LYP) =  -381.563554576     A.U. after    1 cycles

 Alpha  occ. eigenvalues --  -19.27327 -19.27169 -19.20338 -10.43333 -10.34428
 Alpha  occ. eigenvalues --  -10.33755 -10.27440  -1.24320  -1.12786  -1.11733
 Alpha  occ. eigenvalues --   -0.89621  -0.80401  -0.72582  -0.68425  -0.62761
 Alpha  occ. eigenvalues --   -0.58636  -0.56110  -0.52012  -0.51000  -0.50708
 Alpha  occ. eigenvalues --   -0.48583  -0.46669  -0.44256  -0.42842  -0.37388
 Alpha  occ. eigenvalues --   -0.36874  -0.35453
 Alpha virt. eigenvalues --    0.09646   0.12398   0.13184   0.15961   0.17559
 Alpha virt. eigenvalues --    0.19706   0.19810   0.21539   0.23181   0.26177
 Alpha virt. eigenvalues --    0.28717   0.31780   0.41954   0.43833   0.53008

 Mulliken charges:
               1
     1  C    0.131337
     2  C    0.034420
     3  O   -0.449572
     4  C   -0.328784
     5  H    0.130478
     6  H    0.122535
     7  H    0.137194
     8  H    0.124908
     9  H    0.115871
    10  H    0.122124
    11  C    0.700127
    12  O   -0.445776
    13  O   -0.394863
 Sum of Mulliken charges =   0.00000

 Dipole moment (field-independent basis, Debye):
    X=             -1.2145    Y=              5.1428    Z=             -1.6093  Tot=              5.5239
 Quadrupole moment (field-independent basis, Debye-Ang):
   XX=            -42.9826   YY=            -39.6676   ZZ=            -38.7803
   XY=              3.2447   XZ=             -2.0561   YZ=              0.7033

  Exact polarizability:  43.498  -1.990  57.948   2.175  -5.129  39.124
 Approx polarizability:  52.067  -3.753  64.243   2.873  -6.519  47.539

                      1                      2                      3
                      A                      A                      A
 Frequencies --    104.8338               181.9640               230.9118
 Red. masses --      4.0954                 3.5431                 1.1358
 Frc consts  --      0.0265                 0.0691                 0.0357
 IR Inten    --      0.7777                 0.7776                 0.1038

                      4                      5                      6
                      A                      A                      A
 Frequencies --    306.3293               457.1238               550.7434
 Red. masses --      2.5706                 2.5710                 6.7673
 Frc consts  --      0.1421                 0.3165                 1.2094
 IR Inten    --      0.9962                 3.2102                 0.7996

                      7                      8                      9
                      A                      A                      A
 Frequencies --    646.7491               730.7704               780.6860
 Red. masses --      3.3828                 9.4158                12.1545
 Frc consts  --      0.8337                 2.9626                 4.3646
 IR Inten    --      2.1400                 3.0526                25.9772

                     10                     11                     12
                      A                      A                      A
 Frequencies --    884.7155               938.6526               972.0128
 Red. masses --      3.4902                 2.2271                 1.3379
 Frc consts  --      1.6095                 1.1561                 0.7447
 IR Inten    --      0.8903                 5.1563                 5.1823

                     13                     14                     15
                      A                      A                      A
 Frequencies --    997.4110              1133.9643              1145.0271
 Red. masses --      3.1109                 2.9599                 4.0461
 Frc consts  --      1.8234                 2.2425                 3.1255
 IR Inten    --     16.4523                30.0714               122.8056

                     16                     17                     18
                      A                      A                      A
 Frequencies --   1170.9199              1184.2566              1216.3476
 Red. masses --      4.1528                 1.9577                 2.3881
 Frc consts  --      3.3546                 1.6177                 2.0817
 IR Inten    --    171.4402                 4.1624               167.1234

                     19                     20                     21
                      A                      A                      A
 Frequencies --   1260.3593              1386.0944              1401.8951
 Red. masses --      1.2025                 1.2518                 1.5665
 Frc consts  --      1.1254                 1.4170                 1.8139
 IR Inten    --      9.3550                18.8932                56.1332

                     22                     23                     24
                      A                      A                      A
 Frequencies --   1436.5065              1454.6390              1505.0939
 Red. masses --      1.3702                 1.6159                 1.0650
 Frc consts  --      1.6659                 2.0145                 1.4214
 IR Inten    --     23.4274                10.2240                 3.9727

                     25                     26                     27
                      A                      A                      A
 Frequencies --   1518.4714              1543.7427              1972.7728
 Red. masses --      1.0506                 1.0975                12.9123
 Frc consts  --      1.4272                 1.5410                29.6079
 IR Inten    --      3.8461                 7.3173               646.6629

                     28                     29                     30
                      A                      A                      A
 Frequencies --   3076.1996              3081.8906              3084.5201
 Red. masses --      1.0794                 1.0544                 1.0560
 Frc consts  --      6.0179                 5.9004                 5.9193
 IR Inten    --     11.2494                11.7911                34.7285

                     31                     32                     33
                      A                      A                      A
 Frequencies --   3161.0536              3166.2224              3175.9196
 Red. masses --      1.1034                 1.1031                 1.1041
 Frc consts  --      6.4961                 6.5154                 6.5614
 IR Inten    --      5.9924                22.7935                12.0732

 - Thermochemistry -
 -------------------
 Temperature   298.150 Kelvin.  Pressure   1.00000 Atm.
 Atom     1 has atomic number  6 and mass  12.00000

 Molecular mass:   102.03169 amu.
 Principal axes and moments of inertia in atomic units:
                           1         2         3
     Eigenvalues --   299.84180 804.044781037.22907
           X            0.06584   0.95621  -0.28519
           Y            0.98846  -0.02342   0.14968
           Z           -0.13644   0.29176   0.94671
 This molecule is an asymmetric top.
 Rotational symmetry number  1.
 Rotational temperatures (Kelvin)      0.28887     0.10772     0.08351
 Rotational constants (GHZ):           6.01898     2.24458     1.73996
 Zero-point vibrational energy     274296.5 (Joules/Mol)
                                   65.55845 (Kcal/Mol)
 Warning -- explicit consideration of   6 degrees of freedom as
           vibrations may cause significant error
 Vibrational temperatures:    150.83   261.81   332.23   440.74   657.70
          (Kelvin)            792.40   930.53  1051.42  1123.23  1272.91
                             1350.51  1398.51  1435.05  1631.52  1647.44
                             1684.69  1703.88  1750.05  1813.38  1994.28
                             2017.01  2066.81  2092.90  2165.49  2184.74
                             2221.10  2838.38  4425.97  4434.15  4437.94
                             4548.05  4555.49  4569.44

 Zero-point correction=                           0.104474 (Hartree/Particle)
 Thermal correction to Energy=                    0.110648
 Thermal correction to Enthalpy=                  0.111592
 Thermal correction to Gibbs Free Energy=         0.074179
 Sum of electronic and zero-point Energies=           -381.459081
 Sum of electronic and thermal Energies=              -381.452907
 Sum of electronic and thermal Enthalpies=            -381.451963
 Sum of electronic and thermal Free Energies=         -381.489376

                     E (Thermal)             CV                S
                      KCal/Mol        Cal/Mol-Kelvin    Cal/Mol-Kelvin
 Total                   69.432             21.777             78.742
 Electronic               0.000              0.000              0.000
 Translational            0.889              2.981             39.778
 Rotational               0.889              2.981             27.016
 Vibrational             67.655             15.815             11.948
 Vibration     1          0.605              1.945              3.362
 Vibration     2          0.630              1.864              2.308
 Vibration     3          0.653              1.794              1.872
 Vibration     4          0.697              1.662              1.382
 Vibration     5          0.815              1.345              0.775
 Vibration     6          0.906              1.138              0.543

 Optimization completed.
    -- Stationary point found.
 Normal termination of Gaussian 16 at Thu Aug 22 12:00:50 2019.
