 Gaussian 16, Revision B.01,
 Gaussian 16:  ES64L-G16RevB.01 20-Dec-2017

 ------------------------------------------------------------------
 # opt=(calcfc,tight) freq cam-b3lyp/gen nosymm pseudo=read scf=xqc
 ------------------------------------------------------------------

 ---------------------------
 3_test_opt_freq_from_IRC_re
 ---------------------------
 Symbolic Z-matrix:
 Charge =  0 Multiplicity = 1

 SCF Done:  E(RCAM-B3LYP) =  -3135.92534208     A.U. after   14 cycles
 SCF Done:  E(RCAM-B3LYP) =  -3135.92565418     A.U. after   12 cycles
 SCF Done:  E(RCAM-B3LYP) =  -3135.92555860     A.U. after   14 cycles
 SCF Done:  E(RCAM-B3LYP) =  -3135.92573764     A.U. after   12 cycles
 SCF Done:  E(RCAM-B3LYP) =  -3135.92574618     A.U. after   10 cycles
 SCF Done:  E(RCAM-B3LYP) =  -3135.92574328     A.U. after   10 cycles
 SCF Done:  E(RCAM-B3LYP) =  -3135.92574729     A.U. after   10 cycles
 SCF Done:  E(RCAM-B3LYP) =  -3135.92574745     A.U. after    8 cycles
 SCF Done:  E(RCAM-B3LYP) =  -3135.92574750     A.U. after    7 cycles
 SCF Done:  E(RCAM-B3LYP) =  -3135.92574753     A.U. after    7 cycles
 SCF Done:  E(RCAM-B3LYP) =  -3135.92574755     A.U. after    7 cycles
 SCF Done:  E(RCAM-B3LYP) =  -3135.92574755     A.U. after    4 cycles
 SCF Done:  E(RCAM-B3LYP) =  -3135.92574755     A.U. after    3 cycles
 Optimization completed on the basis of negligible forces.
    -- Stationary point found.
 Normal termination of Gaussian 16 at Tue Mar 14 11:07:06 2023.

 ----------------------------------------------------------------------
 #N Geom=AllCheck Guess=TCheck SCRF=Check GenChk RCAM-B3LYP/ChkBas Freq
 ----------------------------------------------------------------------

 Structure from the checkpoint file:  "3_test_opt_freq_from_IRC_re.chk"
 ---------------------------
 3_test_opt_freq_from_IRC_re
 ---------------------------
 Charge =  0 Multiplicity = 1

                          Input orientation:
 ---------------------------------------------------------------------
 Center     Atomic      Atomic             Coordinates (Angstroms)
 Number     Number       Type             X           Y           Z
 ---------------------------------------------------------------------
      1          6           0       -0.750832    1.248445    0.616338
      2          6           0        0.543057    1.929039    1.074796
      3          8           0       -0.409538   -0.035132    0.293047
      4          6           0       -1.393979    1.995947   -0.557104
      5          1           0        0.992694    1.362228    1.886722
      6          1           0        1.248560    2.019094    0.248492
      7          1           0       -2.300708    1.467039   -0.866726
      8          1           0       -0.701685    2.006034   -1.407931
      9          1           0       -1.658507    3.028396   -0.311421
     10          1           0       -1.459774    1.306217    1.470180
     11         35           0        0.321173    3.769772    1.786051
     12          7           0        0.084964   -2.833516   -1.270137
     13          6           0       -1.354466   -2.393206   -1.003294
     14          6           0       -2.123035   -1.810904   -2.175395
     15          1           0       -1.276625   -1.597522   -0.242688
     16          1           0       -1.851340   -3.287938   -0.617268
     17          1           0       -3.161147   -1.711510   -1.847473
     18          1           0       -1.773319   -0.804602   -2.405304
     19          1           0       -2.130160   -2.421495   -3.081654
     20          6           0        0.106968   -3.853134   -2.376321
     21          6           0        1.446563   -4.532848   -2.616433
     22          1           0       -0.219279   -3.344471   -3.280564
     23          1           0       -0.656395   -4.593645   -2.124064
     24          1           0        1.359764   -5.145841   -3.516776
     25          1           0        2.251708   -3.815106   -2.784085
     26          1           0        1.736364   -5.194014   -1.798754
     27          6           0        0.581467   -3.506015    0.004003
     28          6           0        0.334539   -2.740853    1.297774
     29          1           0        1.647442   -3.671015   -0.148403
     30          1           0        0.095476   -4.485816    0.027939
     31          1           0        1.074822   -3.068784    2.031871
     32          1           0        0.381525   -1.649148    1.169729
     33          1           0       -0.654783   -2.962710    1.702607
     34          6           0        0.994551   -1.633882   -1.564237
     35          6           0        1.029957   -1.152273   -3.005615
     36          1           0        1.996527   -1.946037   -1.263706
     37          1           0        0.632222   -0.826986   -0.889111
     38          1           0        1.671983   -0.267588   -3.019466
     39          1           0        1.457223   -1.871247   -3.709992
     40          1           0        0.055965   -0.837698   -3.378016
 ---------------------------------------------------------------------

 SCF Done:  E(RCAM-B3LYP) =  -3135.92574755     A.U. after    1 cycles

 Alpha  occ. eigenvalues -- -482.66858 -61.75116 -56.32073 -56.31745 -56.31734
 Alpha  occ. eigenvalues --  -19.06968 -14.53455 -10.33715 -10.32598 -10.29915
 Alpha  occ. eigenvalues --  -10.29464 -10.29269 -10.26875 -10.26491 -10.24847
 Alpha  occ. eigenvalues --  -10.24441 -10.23733 -10.18981  -8.53350  -6.55031
 Alpha  occ. eigenvalues --   -6.53897  -6.53882  -2.67197  -2.66877  -2.66866
 Alpha  occ. eigenvalues --   -2.65966  -2.65966  -1.10154  -0.95750  -0.89447
 Alpha  occ. eigenvalues --   -0.87585  -0.86982  -0.82770  -0.81999  -0.76178
 Alpha  occ. eigenvalues --   -0.74898  -0.73673  -0.72971  -0.68991  -0.66026
 Alpha  occ. eigenvalues --   -0.60341  -0.59979  -0.58487  -0.58250  -0.55974
 Alpha  occ. eigenvalues --   -0.54357  -0.51659  -0.50882  -0.49851  -0.48935
 Alpha  occ. eigenvalues --   -0.48178  -0.47650  -0.47161  -0.46644  -0.46218
 Alpha  occ. eigenvalues --   -0.45567  -0.44525  -0.44079  -0.43678  -0.42712
 Alpha  occ. eigenvalues --   -0.42036  -0.41616  -0.41335  -0.39264  -0.37150
 Alpha  occ. eigenvalues --   -0.36828  -0.33472  -0.28801  -0.28370  -0.21678
 Alpha  occ. eigenvalues --   -0.21417
 Alpha virt. eigenvalues --    0.08877   0.10914   0.11221   0.12149   0.13036
 Alpha virt. eigenvalues --    0.13863   0.15472   0.16308   0.16743   0.17345
 Alpha virt. eigenvalues --    0.18452   0.19088   0.19375   0.19772   0.20258

 Mulliken charges:
               1
     1  C    0.249725
     2  C   -0.175423
     3  O   -0.664345
     4  C   -0.310728
     5  H    0.125977
     6  H    0.111310
     7  H    0.070261
     8  H    0.061749
     9  H    0.092705
    10  H    0.024478
    11  Br  -0.255992
    12  N   -0.376714
    13  C   -0.080975
    14  C   -0.345661
    15  H    0.220487
    16  H    0.100506
    17  H    0.130854
    18  H    0.153824
    19  H    0.095968
    20  C   -0.052748
    21  C   -0.342031
    22  H    0.145136
    23  H    0.130312
    24  H    0.132171
    25  H    0.133801
    26  H    0.127765
    27  C   -0.062573
    28  C   -0.358034
    29  H    0.130666
    30  H    0.119417
    31  H    0.102515
    32  H    0.198802
    33  H    0.114338
    34  C   -0.092625
    35  C   -0.340444
    36  H    0.106138
    37  H    0.218161
    38  H    0.138580
    39  H    0.097423
    40  H    0.125226
 Sum of Mulliken charges =  -0.00000

 Dipole moment (field-independent basis, Debye):
    X=              1.3378    Y=            -11.6237    Z=             -6.0945  Tot=             13.1925
 Quadrupole moment (field-independent basis, Debye-Ang):
   XX=           -100.3243   YY=            -92.8515   ZZ=            -98.5782
   XY=             -2.1831   XZ=             -1.2236   YZ=              4.7940

  Exact polarizability: 131.754  -4.643 182.441   0.899  22.885 143.957
 Approx polarizability: 160.946  -1.531 191.371  -1.025  13.048 163.492

                      1                      2                      3
                      A                      A                      A
 Frequencies --     15.9714                26.4246                31.4690
 Red. masses --      3.5102                 4.0533                 4.0653
 Frc consts  --      0.0005                 0.0017                 0.0024
 IR Inten    --      0.6759                 1.3139                 0.8388

                      4                      5                      6
                      A                      A                      A
 Frequencies --     62.2062                96.8565               109.6082
 Red. masses --      2.8061                 3.2428                 2.6820
 Frc consts  --      0.0064                 0.0179                 0.0190
 IR Inten    --      1.9083                 2.5988                 2.5447

                      7                      8                      9
                      A                      A                      A
 Frequencies --    125.2820               138.8314               160.2710
 Red. masses --      3.9343                 2.2350                 2.5197
 Frc consts  --      0.0364                 0.0254                 0.0381
 IR Inten    --     14.2803                 5.4893                 1.6855

                     10                     11                     12
                      A                      A                      A
 Frequencies --    163.7011               170.7348               206.4221
 Red. masses --      2.2696                 2.2008                 2.3557
 Frc consts  --      0.0358                 0.0378                 0.0591
 IR Inten    --      4.2071                 2.0962                 6.0643

                     13                     14                     15
                      A                      A                      A
 Frequencies --    226.9785               252.3661               258.8775
 Red. masses --      1.1998                 1.8922                 1.4204
 Frc consts  --      0.0364                 0.0710                 0.0561
 IR Inten    --      3.1159                 1.0447                 3.8166

                     16                     17                     18
                      A                      A                      A
 Frequencies --    263.4217               265.9045               278.2103
 Red. masses --      1.1824                 1.6741                 1.4970
 Frc consts  --      0.0483                 0.0697                 0.0683
 IR Inten    --      5.0069                 1.1325                 6.6237

                     19                     20                     21
                      A                      A                      A
 Frequencies --    292.1248               349.8657               355.5807
 Red. masses --      1.5026                 2.0270                 4.5980
 Frc consts  --      0.0755                 0.1462                 0.3425
 IR Inten    --      2.6498                 0.3092                 5.7116

                     22                     23                     24
                      A                      A                      A
 Frequencies --    367.6747               392.3667               407.2754
 Red. masses --      2.8896                 2.8106                 2.5025
 Frc consts  --      0.2302                 0.2549                 0.2446
 IR Inten    --      4.0520                 3.0993                12.1921

                     25                     26                     27
                      A                      A                      A
 Frequencies --    428.3188               467.0940               481.6117
 Red. masses --      2.3298                 2.3355                 2.6699
 Frc consts  --      0.2518                 0.3002                 0.3649
 IR Inten    --     28.4150                 5.0783                 9.7575

                     28                     29                     30
                      A                      A                      A
 Frequencies --    531.1631               558.2358               643.2754
 Red. masses --      2.5641                 3.0180                 4.8674
 Frc consts  --      0.4262                 0.5541                 1.1867
 IR Inten    --      5.4182                 1.4398               176.9787

                     31                     32                     33
                      A                      A                      A
 Frequencies --    676.5985               808.1999               824.9472
 Red. masses --      2.7388                 1.2733                 1.9325
 Frc consts  --      0.7387                 0.4900                 0.7749
 IR Inten    --      1.8789                12.0744                 5.7836

                     34                     35                     36
                      A                      A                      A
 Frequencies --    826.5490               843.9796               849.1257
 Red. masses --      1.3895                 1.1918                 1.1369
 Frc consts  --      0.5593                 0.5002                 0.4830
 IR Inten    --     11.6365                24.0948                 5.3166

                     37                     38                     39
                      A                      A                      A
 Frequencies --    879.5406               910.7158               927.4862
 Red. masses --      1.4342                 1.5533                 1.9934
 Frc consts  --      0.6537                 0.7590                 1.0103
 IR Inten    --      2.5842                 2.8394                 3.7625

                     40                     41                     42
                      A                      A                      A
 Frequencies --    941.6222               977.6364              1041.0073
 Red. masses --      1.9314                 1.8630                 1.9253
 Frc consts  --      1.0090                 1.0491                 1.2293
 IR Inten    --      0.8472                49.7088                11.7710

                     43                     44                     45
                      A                      A                      A
 Frequencies --   1054.4592              1060.7698              1063.6941
 Red. masses --      1.2305                 2.3002                 2.6761
 Frc consts  --      0.8061                 1.5250                 1.7840
 IR Inten    --     13.7030                23.7613                 9.1655

                     46                     47                     48
                      A                      A                      A
 Frequencies --   1083.4103              1103.9359              1110.8142
 Red. masses --      2.8214                 1.8555                 1.6800
 Frc consts  --      1.9512                 1.3323                 1.2214
 IR Inten    --      9.3652                10.7880                 2.6132

                     49                     50                     51
                      A                      A                      A
 Frequencies --   1131.6066              1144.7468              1169.7475
 Red. masses --      1.6878                 2.1568                 1.8092
 Frc consts  --      1.2734                 1.6652                 1.4586
 IR Inten    --      2.4019                 8.6147                 5.7685

                     52                     53                     54
                      A                      A                      A
 Frequencies --   1182.8483              1205.5042              1213.4917
 Red. masses --      1.7626                 2.4191                 1.7949
 Frc consts  --      1.4530                 2.0713                 1.5573
 IR Inten    --     12.9568               416.8568                30.9614

                     55                     56                     57
                      A                      A                      A
 Frequencies --   1218.1028              1226.7679              1238.2091
 Red. masses --      2.2636                 1.8601                 1.8180
 Frc consts  --      1.9789                 1.6493                 1.6423
 IR Inten    --     14.7487                 7.1017                 9.1424

                     58                     59                     60
                      A                      A                      A
 Frequencies --   1243.0274              1335.6323              1350.0430
 Red. masses --      1.3433                 1.1059                 1.1280
 Frc consts  --      1.2229                 1.1624                 1.2113
 IR Inten    --      1.2295                 4.8306                 8.6796

                     61                     62                     63
                      A                      A                      A
 Frequencies --   1375.9489              1388.8195              1397.1684
 Red. masses --      1.2625                 1.2683                 1.2314
 Frc consts  --      1.4083                 1.4414                 1.4163
 IR Inten    --     62.2844                 6.8494                 4.2638

                     64                     65                     66
                      A                      A                      A
 Frequencies --   1398.3764              1414.2612              1421.3011
 Red. masses --      1.1622                 1.4243                 1.2548
 Frc consts  --      1.3390                 1.6785                 1.4935
 IR Inten    --      7.4188                31.1823                 0.8298

                     67                     68                     69
                      A                      A                      A
 Frequencies --   1433.6196              1441.4741              1446.9081
 Red. masses --      1.2543                 1.2596                 1.2295
 Frc consts  --      1.5189                 1.5420                 1.5166
 IR Inten    --      2.1950                 8.0131                24.0355

                     70                     71                     72
                      A                      A                      A
 Frequencies --   1455.7738              1481.2545              1484.7160
 Red. masses --      1.3183                 1.0967                 1.1815
 Frc consts  --      1.6461                 1.4177                 1.5346
 IR Inten    --     16.9388                14.8247                11.1774

                     73                     74                     75
                      A                      A                      A
 Frequencies --   1497.6743              1498.4296              1506.7276
 Red. masses --      1.0554                 1.0989                 1.0561
 Frc consts  --      1.3947                 1.4537                 1.4127
 IR Inten    --      2.6396                12.4133                 4.3298

                     76                     77                     78
                      A                      A                      A
 Frequencies --   1509.6400              1511.9605              1513.3109
 Red. masses --      1.0557                 1.0569                 1.0548
 Frc consts  --      1.4175                 1.4236                 1.4232
 IR Inten    --     18.6343                 1.5753                11.4735

                     79                     80                     81
                      A                      A                      A
 Frequencies --   1516.4977              1518.3329              1525.4774
 Red. masses --      1.0585                 1.0796                 1.0566
 Frc consts  --      1.4342                 1.4664                 1.4486
 IR Inten    --     20.6027                 3.5451                 2.4139

                     82                     83                     84
                      A                      A                      A
 Frequencies --   1528.9977              1532.9582              1533.7492
 Red. masses --      1.0555                 1.0556                 1.0721
 Frc consts  --      1.4539                 1.4615                 1.4859
 IR Inten    --      8.5445                 3.2526                12.8396

                     85                     86                     87
                      A                      A                      A
 Frequencies --   1544.4324              1547.4460              1563.5226
 Red. masses --      1.0789                 1.0810                 1.0808
 Frc consts  --      1.5163                 1.5252                 1.5566
 IR Inten    --     11.8793                 6.2735                16.2917

                     88                     89                     90
                      A                      A                      A
 Frequencies --   1594.2229              2791.3646              2889.6666
 Red. masses --      1.1374                 1.0959                 1.0807
 Frc consts  --      1.7032                 5.0310                 5.3170
 IR Inten    --     21.7438               673.2179               137.3851

                     91                     92                     93
                      A                      A                      A
 Frequencies --   2943.4497              3009.0621              3048.6564
 Red. masses --      1.0803                 1.0583                 1.0376
 Frc consts  --      5.5145                 5.6457                 5.6819
 IR Inten    --    408.1219               389.6751                27.6171

                     94                     95                     96
                      A                      A                      A
 Frequencies --   3086.9686              3088.9674              3095.1679
 Red. masses --      1.0394                 1.0412                 1.0570
 Frc consts  --      5.8357                 5.8534                 5.9663
 IR Inten    --      2.8505                25.3060                12.3479

                     97                     98                     99
                      A                      A                      A
 Frequencies --   3096.7425              3113.6443              3118.9420
 Red. masses --      1.0469                 1.0778                 1.0856
 Frc consts  --      5.9152                 6.1565                 6.2221
 IR Inten    --     25.3687                12.7636                 9.3838

                    100                    101                    102
                      A                      A                      A
 Frequencies --   3121.4145              3128.7390              3130.8187
 Red. masses --      1.0997                 1.0850                 1.0587
 Frc consts  --      6.3127                 6.2576                 6.1144
 IR Inten    --     41.3267                24.4834                24.9150

                    103                    104                    105
                      A                      A                      A
 Frequencies --   3133.4076              3144.8378              3150.8191
 Red. masses --      1.0896                 1.1024                 1.1014
 Frc consts  --      6.3031                 6.4240                 6.4424
 IR Inten    --     28.3257                41.4598                12.5799

                    106                    107                    108
                      A                      A                      A
 Frequencies --   3153.0376              3155.4763              3167.3750
 Red. masses --      1.1016                 1.1027                 1.1026
 Frc consts  --      6.4528                 6.4689                 6.5176
 IR Inten    --     11.9355                 3.6140                 5.4451

                    109                    110                    111
                      A                      A                      A
 Frequencies --   3175.9026              3180.7938              3185.1433
 Red. masses --      1.1013                 1.1013                 1.1029
 Frc consts  --      6.5449                 6.5649                 6.5925
 IR Inten    --     21.8905                 9.7014                13.7814

                    112                    113                    114
                      A                      A                      A
 Frequencies --   3198.8252              3202.5555              3212.0762
 Red. masses --      1.0979                 1.0993                 1.1105
 Frc consts  --      6.6190                 6.6427                 6.7503
 IR Inten    --     14.0752                 6.9445                11.3762

 - Thermochemistry -
 -------------------
 Temperature   298.150 Kelvin.  Pressure   1.00000 Atm.
 Atom     1 has atomic number  6 and mass  12.00000

 Molecular mass:   267.11978 amu.
 Principal axes and moments of inertia in atomic units:
                           1         2         3
     Eigenvalues --  1816.85856********************
           X           -0.00727   0.51896   0.85477
           Y            0.89672  -0.37490   0.23525
           Z            0.44254   0.76820  -0.46264
 This molecule is an asymmetric top.
 Rotational symmetry number  1.
 Warning -- assumption of classical behavior for rotation
           may cause significant error
 Rotational temperatures (Kelvin)      0.04767     0.00783     0.00763
 Rotational constants (GHZ):           0.99333     0.16305     0.15892
 Zero-point vibrational energy     969448.9 (Joules/Mol)
                                  231.70385 (Kcal/Mol)
 Warning -- explicit consideration of  29 degrees of freedom as
           vibrations may cause significant error
 Vibrational temperatures:     22.98    38.02    45.28    89.50   139.35
          (Kelvin)            157.70   180.25   199.75   230.59   235.53
                              245.65   297.00   326.57   363.10   372.47
                              379.01   382.58   400.28   420.30   503.38
                              511.60   529.00   564.53   585.98   616.26
                              672.04   692.93   764.23   803.18   925.53
                              973.47  1162.82  1186.92  1189.22  1214.30
                             1221.70  1265.46  1310.32  1334.45  1354.78
                             1406.60  1497.78  1517.13  1526.21  1530.42
                             1558.79  1588.32  1598.21  1628.13  1647.04
                             1683.01  1701.85  1734.45  1745.94  1752.58
                             1765.05  1781.51  1788.44  1921.68  1942.41
                             1979.68  1998.20  2010.21  2011.95  2034.81
                             2044.94  2062.66  2073.96  2081.78  2094.53
                             2131.19  2136.18  2154.82  2155.91  2167.85
                             2172.04  2175.37  2177.32  2181.90  2184.54
                             2194.82  2199.89  2205.58  2206.72  2222.09
                             2226.43  2249.56  2293.73  4016.15  4157.59
                             4234.97  4329.37  4386.34  4441.46  4444.34
                             4453.26  4455.52  4479.84  4487.46  4491.02
                             4501.56  4504.55  4508.27  4524.72  4533.33
                             4536.52  4540.03  4557.15  4569.42  4576.45
                             4582.71  4602.40  4607.76  4621.46

 Zero-point correction=                           0.369244 (Hartree/Particle)
 Thermal correction to Energy=                    0.388278
 Thermal correction to Enthalpy=                  0.389222
 Thermal correction to Gibbs Free Energy=         0.319950
 Sum of electronic and zero-point Energies=          -3135.556504
 Sum of electronic and thermal Energies=             -3135.537469
 Sum of electronic and thermal Enthalpies=           -3135.536525
 Sum of electronic and thermal Free Energies=        -3135.605798

                     E (Thermal)             CV                S
                      KCal/Mol        Cal/Mol-Kelvin    Cal/Mol-Kelvin
 Total                  243.648             69.106            145.796
 Electronic               0.000              0.000              0.000
 Translational            0.889              2.981             42.647
 Rotational               0.889              2.981             33.790
 Vibrational            241.871             63.144             69.360
 Vibration     1          0.593              1.986              7.081
 Vibration     2          0.593              1.985              6.081
 Vibration     3          0.594              1.983              5.735
 Vibration     4          0.597              1.972              4.386
 Vibration     5          0.603              1.951              3.517
 Vibration     6          0.606              1.942              3.276
 Vibration     7          0.610              1.928              3.017
 Vibration     8          0.614              1.915              2.820
 Vibration     9          0.622              1.891              2.547
 Vibration    10          0.623              1.887              2.507
 Vibration    11          0.626              1.879              2.427
 Vibration    12          0.641              1.831              2.075
 Vibration    13          0.651              1.800              1.903
 Vibration    14          0.664              1.759              1.714
 Vibration    15          0.668              1.748              1.669
 Vibration    16          0.670              1.740              1.639
 Vibration    17          0.672              1.736              1.623
 Vibration    18          0.679              1.714              1.545
 Vibration    19          0.688              1.688              1.462
 Vibration    20          0.727              1.576              1.167
 Vibration    21          0.731              1.564              1.141
 Vibration    22          0.740              1.539              1.089
 Vibration    23          0.760              1.486              0.991
 Vibration    24          0.772              1.454              0.936
 Vibration    25          0.790              1.409              0.864
 Vibration    26          0.824              1.323              0.746
 Vibration    27          0.838              1.291              0.706
 Vibration    28          0.886              1.181              0.585
 Vibration    29          0.914              1.122              0.527

 Optimization completed on the basis of negligible forces.
    -- Stationary point found.
 Normal termination of Gaussian 16 at Tue Mar 14 11:09:23 2023.
