 Gaussian 16, Revision B.01,
 Gaussian 16:  ES64L-G16RevB.01 20-Dec-2017

 ------------------------------------------------------------------
 # opt=(calcfc,tight) freq cam-b3lyp/gen nosymm pseudo=read scf=xqc
 ------------------------------------------------------------------

 ---------------------------
 4_test_opt_freq_from_IRC_re
 ---------------------------
 Symbolic Z-matrix:
 Charge =  0 Multiplicity = 1

 SCF Done:  E(RCAM-B3LYP) =  -3324.47549957     A.U. after   14 cycles
 SCF Done:  E(RCAM-B3LYP) =  -3324.47559610     A.U. after   11 cycles
 SCF Done:  E(RCAM-B3LYP) =  -3324.47560115     A.U. after   10 cycles
 SCF Done:  E(RCAM-B3LYP) =  -3324.47560226     A.U. after    8 cycles
 SCF Done:  E(RCAM-B3LYP) =  -3324.47560241     A.U. after    8 cycles
 SCF Done:  E(RCAM-B3LYP) =  -3324.47560242     A.U. after    6 cycles
 SCF Done:  E(RCAM-B3LYP) =  -3324.47560242     A.U. after    5 cycles
 SCF Done:  E(RCAM-B3LYP) =  -3324.47560242     A.U. after    3 cycles
 SCF Done:  E(RCAM-B3LYP) =  -3324.47560242     A.U. after    3 cycles
 SCF Done:  E(RCAM-B3LYP) =  -3324.47560242     A.U. after    4 cycles
 SCF Done:  E(RCAM-B3LYP) =  -3324.47560242     A.U. after    3 cycles
 SCF Done:  E(RCAM-B3LYP) =  -3324.47560242     A.U. after    3 cycles
 Optimization completed.
    -- Stationary point found.
 Normal termination of Gaussian 16 at Mon Mar 13 14:04:26 2023.

 ----------------------------------------------------------------------
 #N Geom=AllCheck Guess=TCheck SCRF=Check GenChk RCAM-B3LYP/ChkBas Freq
 ----------------------------------------------------------------------

 Structure from the checkpoint file:  "4_test_opt_freq_from_IRC_re.chk"
 ---------------------------
 4_test_opt_freq_from_IRC_re
 ---------------------------
 Charge =  0 Multiplicity = 1

                          Input orientation:
 ---------------------------------------------------------------------
 Center     Atomic      Atomic             Coordinates (Angstroms)
 Number     Number       Type             X           Y           Z
 ---------------------------------------------------------------------
      1          6           0        1.164091    1.275027    0.830286
      2          6           0        1.753134    2.033065   -0.358833
      3          8           0       -0.034479    0.603650    0.447265
      4          6           0        0.974899    2.140964    2.067384
      5          1           0        1.681775    1.433067   -1.263929
      6          1           0        1.277901    2.995266   -0.510152
      7          1           0        0.598784    1.531602    2.893794
      8          1           0        0.256810    2.932667    1.854317
      9          1           0        1.927543    2.582674    2.370041
     10          1           0        1.853823    0.457758    1.068630
     11         35           0        3.675325    2.367264   -0.092842
     12          6           0       -1.154216    1.385523   -0.034868
     13          8           0       -2.134577    0.649132   -0.266352
     14          8           0       -0.980577    2.592792   -0.160034
     15          7           0       -2.121753   -2.832323   -0.061417
     16          6           0       -3.358135   -1.959949    0.173860
     17          6           0       -4.439530   -1.986806   -0.894637
     18          1           0       -2.972172   -0.940073    0.291295
     19          1           0       -3.781733   -2.319753    1.114375
     20          1           0       -5.183955   -1.247307   -0.589905
     21          1           0       -4.082070   -1.684360   -1.876966
     22          1           0       -4.951384   -2.948330   -0.979124
     23          6           0       -2.543592   -4.148929   -0.663696
     24          6           0       -1.459724   -5.204351   -0.816864
     25          1           0       -2.976481   -3.921349   -1.635725
     26          1           0       -3.347971   -4.523907   -0.026090
     27          1           0       -1.921365   -6.085651   -1.268708
     28          1           0       -0.653700   -4.887751   -1.480608
     29          1           0       -1.029242   -5.517167    0.135454
     30          6           0       -1.485924   -3.097958    1.294152
     31          6           0       -1.301240   -1.883018    2.190894
     32          1           0       -0.520601   -3.560903    1.088092
     33          1           0       -2.120111   -3.844372    1.780701
     34          1           0       -0.689155   -2.200524    3.039388
     35          1           0       -0.795855   -1.051182    1.693677
     36          1           0       -2.247757   -1.515686    2.588322
     37          6           0       -1.070972   -2.135243   -0.919764
     38          6           0       -1.516566   -1.657233   -2.287776
     39          1           0       -0.251068   -2.850848   -0.997619
     40          1           0       -0.734662   -1.265655   -0.355439
     41          1           0       -0.614834   -1.335424   -2.815328
     42          1           0       -1.993109   -2.425401   -2.903021
     43          1           0       -2.152977   -0.778294   -2.185930
 ---------------------------------------------------------------------

 SCF Done:  E(RCAM-B3LYP) =  -3324.47560242     A.U. after    1 cycles

 Alpha  occ. eigenvalues -- -482.69139 -61.77398 -56.34368 -56.34021 -56.34010
 Alpha  occ. eigenvalues --  -19.18785 -19.11549 -19.11164 -14.54953 -10.34899
 Alpha  occ. eigenvalues --  -10.34140 -10.33804 -10.31578 -10.31459 -10.30193
 Alpha  occ. eigenvalues --  -10.28375 -10.27576 -10.26977 -10.26749 -10.26476
 Alpha  occ. eigenvalues --  -10.20881  -8.55643  -6.57363  -6.56171  -6.56150
 Alpha  occ. eigenvalues --   -2.69522  -2.69188  -2.69171  -2.68225  -2.68225
 Alpha  occ. eigenvalues --   -1.11735  -1.11220  -1.02161  -0.98556  -0.90673
 Alpha  occ. eigenvalues --   -0.89054  -0.88287  -0.85971  -0.83940  -0.78938
 Alpha  occ. eigenvalues --   -0.77093  -0.75385  -0.74333  -0.71662  -0.67137
 Alpha  occ. eigenvalues --   -0.65445  -0.61816  -0.61589  -0.59340  -0.57734
 Alpha  occ. eigenvalues --   -0.55787  -0.55216  -0.53565  -0.52266  -0.51766
 Alpha  occ. eigenvalues --   -0.50714  -0.49620  -0.48777  -0.48630  -0.48108
 Alpha  occ. eigenvalues --   -0.47804  -0.47600  -0.47117  -0.46626  -0.46169
 Alpha  occ. eigenvalues --   -0.45260  -0.44588  -0.44160  -0.43756  -0.42936
 Alpha  occ. eigenvalues --   -0.42653  -0.41291  -0.40579  -0.39847  -0.38478
 Alpha  occ. eigenvalues --   -0.36072  -0.31792  -0.30428  -0.29447  -0.28178
 Alpha  occ. eigenvalues --   -0.26692  -0.24869
 Alpha virt. eigenvalues --    0.08017   0.09102   0.10520   0.11252   0.12353
 Alpha virt. eigenvalues --    0.12910   0.14253   0.15351   0.16039   0.16736
 Alpha virt. eigenvalues --    0.17395   0.18111   0.18424   0.18557   0.18916

 Mulliken charges:
               1
     1  C    0.203714
     2  C   -0.189338
     3  O   -0.539316
     4  C   -0.329663
     5  H    0.131463
     6  H    0.187586
     7  H    0.085019
     8  H    0.147035
     9  H    0.104984
    10  H    0.082525
    11  Br  -0.218047
    12  C    0.637174
    13  O   -0.577482
    14  O   -0.519103
    15  N   -0.376633
    16  C   -0.090874
    17  C   -0.339585
    18  H    0.232680
    19  H    0.115328
    20  H    0.147274
    21  H    0.136144
    22  H    0.100898
    23  C   -0.056878
    24  C   -0.347758
    25  H    0.151156
    26  H    0.136257
    27  H    0.137296
    28  H    0.139047
    29  H    0.130353
    30  C   -0.068845
    31  C   -0.351975
    32  H    0.138053
    33  H    0.125189
    34  H    0.117364
    35  H    0.192308
    36  H    0.127804
    37  C   -0.077025
    38  C   -0.350879
    39  H    0.109398
    40  H    0.209178
    41  H    0.132545
    42  H    0.090670
    43  H    0.184961
 Sum of Mulliken charges =  -0.00000

 Dipole moment (field-independent basis, Debye):
    X=             -4.3957    Y=            -14.6003    Z=              0.1913  Tot=             15.2489
 Quadrupole moment (field-independent basis, Debye-Ang):
   XX=           -119.5854   YY=           -100.5704   ZZ=           -112.6373
   XY=             19.8751   XZ=             -0.3476   YZ=              2.7286

  Exact polarizability: 175.895  23.157 165.852   5.175   3.655 141.129
 Approx polarizability: 199.605  12.194 185.826   4.439  -0.527 167.710

                      1                      2                      3
                      A                      A                      A
 Frequencies --     14.9395                19.4945                39.6202
 Red. masses --      5.4525                 4.4670                 4.9539
 Frc consts  --      0.0007                 0.0010                 0.0046
 IR Inten    --      1.5137                 1.1731                 2.7560

                      4                      5                      6
                      A                      A                      A
 Frequencies --     47.3177                71.1551                80.7652
 Red. masses --      3.4396                 4.3236                 2.3554
 Frc consts  --      0.0045                 0.0129                 0.0091
 IR Inten    --      0.6343                 1.0492                 1.3061

                      7                      8                      9
                      A                      A                      A
 Frequencies --     89.5046               116.8913               124.9779
 Red. masses --      3.5774                 5.1698                 4.1341
 Frc consts  --      0.0169                 0.0416                 0.0380
 IR Inten    --      2.0129                10.8148                 9.4240

                     10                     11                     12
                      A                      A                      A
 Frequencies --    139.9575               156.7935               164.4467
 Red. masses --      4.3166                 1.7392                 2.2220
 Frc consts  --      0.0498                 0.0252                 0.0354
 IR Inten    --      6.6745                 2.2005                 9.7481

                     13                     14                     15
                      A                      A                      A
 Frequencies --    185.9241               191.0258               219.0783
 Red. masses --      3.9334                 2.0215                 5.3104
 Frc consts  --      0.0801                 0.0435                 0.1502
 IR Inten    --      1.1273                 8.2215                 6.8068

                     16                     17                     18
                      A                      A                      A
 Frequencies --    226.7419               242.6412               251.3404
 Red. masses --      1.7562                 1.0604                 1.4035
 Frc consts  --      0.0532                 0.0368                 0.0522
 IR Inten    --      2.9941                 0.7595                 1.7506

                     19                     20                     21
                      A                      A                      A
 Frequencies --    256.3537               267.1248               283.5544
 Red. masses --      1.7414                 1.8075                 1.5082
 Frc consts  --      0.0674                 0.0760                 0.0714
 IR Inten    --      2.4141                 0.4473                 7.6226

                     22                     23                     24
                      A                      A                      A
 Frequencies --    313.9207               322.1368               333.8087
 Red. masses --      5.4528                 1.3104                 1.7877
 Frc consts  --      0.3166                 0.0801                 0.1174
 IR Inten    --      2.4925                 2.0948                 0.4428

                     25                     26                     27
                      A                      A                      A
 Frequencies --    377.4840               390.8771               392.0725
 Red. masses --      2.8204                 2.8757                 2.8484
 Frc consts  --      0.2368                 0.2589                 0.2580
 IR Inten    --      0.6973                 1.5899                 3.3202

                     28                     29                     30
                      A                      A                      A
 Frequencies --    405.3240               447.0877               458.8830
 Red. masses --      2.1427                 2.8192                 2.2629
 Frc consts  --      0.2074                 0.3320                 0.2808
 IR Inten    --     10.2542                 2.7021                 3.9978

                     31                     32                     33
                      A                      A                      A
 Frequencies --    515.2525               550.0356               576.9402
 Red. masses --      2.6624                 2.8350                 6.1916
 Frc consts  --      0.4164                 0.5053                 1.2143
 IR Inten    --      1.8630                 1.3481                10.5414

                     34                     35                     36
                      A                      A                      A
 Frequencies --    653.0194               676.4466               764.6248
 Red. masses --      6.5215                 2.7310                 4.1275
 Frc consts  --      1.6385                 0.7363                 1.4218
 IR Inten    --     53.8952                 1.4033                15.2992

                     37                     38                     39
                      A                      A                      A
 Frequencies --    800.4144               810.9807               817.0838
 Red. masses --      1.3229                 1.4356                 8.1767
 Frc consts  --      0.4994                 0.5563                 3.2164
 IR Inten    --     19.0812                18.2916                24.8049

                     40                     41                     42
                      A                      A                      A
 Frequencies --    828.8582               836.2638               842.4936
 Red. masses --      2.1714                 1.4274                 1.2352
 Frc consts  --      0.8789                 0.5881                 0.5165
 IR Inten    --     82.7259                24.6138                12.7329

                     43                     44                     45
                      A                      A                      A
 Frequencies --    860.1197               896.9669               908.4876
 Red. masses --      2.3407                 1.6235                 1.6247
 Frc consts  --      1.0202                 0.7696                 0.7900
 IR Inten    --     98.9529                26.6641                 0.4204

                     46                     47                     48
                      A                      A                      A
 Frequencies --    925.9082               933.7800              1001.0385
 Red. masses --      1.9107                 1.8259                 2.0491
 Frc consts  --      0.9651                 0.9380                 1.2098
 IR Inten    --      2.7769                 2.7736                32.7286

                     49                     50                     51
                      A                      A                      A
 Frequencies --   1045.1616              1054.0381              1057.6977
 Red. masses --      1.9196                 2.3350                 1.2534
 Frc consts  --      1.2355                 1.5284                 0.8261
 IR Inten    --     10.8455                14.2015                 6.1465

                     52                     53                     54
                      A                      A                      A
 Frequencies --   1059.8001              1080.7235              1101.5387
 Red. masses --      2.2043                 2.8414                 1.8308
 Frc consts  --      1.4587                 1.9553                 1.3089
 IR Inten    --     23.8657                17.2817                 3.0339

                     55                     56                     57
                      A                      A                      A
 Frequencies --   1114.6172              1129.7574              1131.5301
 Red. masses --      1.7978                 3.2906                 1.6710
 Frc consts  --      1.3160                 2.4745                 1.2605
 IR Inten    --      0.5837               203.4974                 6.6956

                     58                     59                     60
                      A                      A                      A
 Frequencies --   1174.7454              1178.0447              1179.5238
 Red. masses --      1.7732                 1.8690                 1.8978
 Frc consts  --      1.4418                 1.5282                 1.5557
 IR Inten    --      4.2881                27.9466                57.6760

                     61                     62                     63
                      A                      A                      A
 Frequencies --   1219.5535              1230.0449              1232.0443
 Red. masses --      2.2472                 1.9544                 1.6484
 Frc consts  --      1.9692                 1.7423                 1.4742
 IR Inten    --     16.4470                14.5243                 1.1567

                     64                     65                     66
                      A                      A                      A
 Frequencies --   1247.1513              1263.9124              1340.9391
 Red. masses --      1.8686                 1.3424                 1.3489
 Frc consts  --      1.7124                 1.2635                 1.4291
 IR Inten    --     10.4586                 7.0945                30.7383

                     67                     68                     69
                      A                      A                      A
 Frequencies --   1345.9031              1353.0567              1391.8288
 Red. masses --      2.5560                 1.1231                 1.1401
 Frc consts  --      2.7280                 1.2115                 1.3013
 IR Inten    --    171.4762                 5.0416                 6.3100

                     70                     71                     72
                      A                      A                      A
 Frequencies --   1396.1180              1406.2355              1413.0456
 Red. masses --      1.3031                 1.2253                 1.3775
 Frc consts  --      1.4965                 1.4276                 1.6205
 IR Inten    --     15.4530                 3.4725                51.6655

                     73                     74                     75
                      A                      A                      A
 Frequencies --   1422.4253              1427.7158              1430.0927
 Red. masses --      1.2706                 1.2180                 1.4461
 Frc consts  --      1.5146                 1.4628                 1.7425
 IR Inten    --      6.1424                 8.3493                36.1110

                     76                     77                     78
                      A                      A                      A
 Frequencies --   1438.8365              1442.7515              1454.4173
 Red. masses --      1.2603                 1.2123                 1.2984
 Frc consts  --      1.5372                 1.4868                 1.6182
 IR Inten    --      6.1967                12.7265                17.2994

                     79                     80                     81
                      A                      A                      A
 Frequencies --   1465.5433              1471.6598              1491.8145
 Red. masses --      1.2470                 1.2537                 1.1550
 Frc consts  --      1.5780                 1.5998                 1.5145
 IR Inten    --      9.2863                 5.0338                 9.0796

                     82                     83                     84
                      A                      A                      A
 Frequencies --   1499.1921              1501.3155              1504.4287
 Red. masses --      1.0871                 1.0718                 1.0588
 Frc consts  --      1.4396                 1.4233                 1.4119
 IR Inten    --      4.7109                 7.3732                 8.7072

                     85                     86                     87
                      A                      A                      A
 Frequencies --   1506.3313              1508.1339              1520.8412
 Red. masses --      1.0487                 1.0780                 1.0713
 Frc consts  --      1.4020                 1.4446                 1.4599
 IR Inten    --     13.7519                13.1667                 0.6939

                     88                     89                     90
                      A                      A                      A
 Frequencies --   1522.9103              1525.3220              1529.2178
 Red. masses --      1.0562                 1.0512                 1.0487
 Frc consts  --      1.4432                 1.4410                 1.4449
 IR Inten    --      3.3944                12.2479                 8.4016

                     91                     92                     93
                      A                      A                      A
 Frequencies --   1531.1699              1533.8798              1537.1168
 Red. masses --      1.0826                 1.0723                 1.0629
 Frc consts  --      1.4954                 1.4864                 1.4797
 IR Inten    --     27.7092                 9.7498                 4.9277

                     94                     95                     96
                      A                      A                      A
 Frequencies --   1542.0015              1546.6672              1551.2827
 Red. masses --      1.0671                 1.0745                 1.0765
 Frc consts  --      1.4950                 1.5145                 1.5264
 IR Inten    --      3.7198                30.5768                11.3556

                     97                     98                     99
                      A                      A                      A
 Frequencies --   1874.7285              3039.3229              3075.9212
 Red. masses --     11.6087                 1.0718                 1.0796
 Frc consts  --     24.0386                 5.8333                 6.0183
 IR Inten    --    975.1071               271.3092                19.3573

                    100                    101                    102
                      A                      A                      A
 Frequencies --   3080.7073              3081.8915              3083.7717
 Red. masses --      1.0397                 1.0389                 1.0436
 Frc consts  --      5.8136                 5.8140                 5.8474
 IR Inten    --     29.2336                37.3291                29.5032

                    103                    104                    105
                      A                      A                      A
 Frequencies --   3095.4124              3097.3948              3100.3297
 Red. masses --      1.0418                 1.0394                 1.0636
 Frc consts  --      5.8812                 5.8750                 6.0236
 IR Inten    --     12.3762                 3.0607                14.5815

                    106                    107                    108
                      A                      A                      A
 Frequencies --   3116.5376              3120.7716              3138.9686
 Red. masses --      1.0681                 1.0634                 1.1022
 Frc consts  --      6.1125                 6.1022                 6.3987
 IR Inten    --      9.3191                84.9575                37.6087

                    109                    110                    111
                      A                      A                      A
 Frequencies --   3150.9634              3154.7216              3158.9667
 Red. masses --      1.1007                 1.1024                 1.1041
 Frc consts  --      6.4387                 6.4640                 6.4913
 IR Inten    --     19.7608                27.3090                18.6361

                    112                    113                    114
                      A                      A                      A
 Frequencies --   3160.5093              3160.8870              3163.0064
 Red. masses --      1.0634                 1.1023                 1.1037
 Frc consts  --      6.2582                 6.4891                 6.5061
 IR Inten    --      9.5258                 3.0405                 5.6642

                    115                    116                    117
                      A                      A                      A
 Frequencies --   3169.2338              3180.9531              3184.2366
 Red. masses --      1.1007                 1.1017                 1.1036
 Frc consts  --      6.5138                 6.5682                 6.5928
 IR Inten    --      5.7146                 3.1255                21.9181

                    118                    119                    120
                      A                      A                      A
 Frequencies --   3188.8481              3194.5559              3197.8769
 Red. masses --      1.1033                 1.1025                 1.1036
 Frc consts  --      6.6099                 6.6288                 6.6496
 IR Inten    --     42.6007                 3.7173                38.1980

                    121                    122                    123
                      A                      A                      A
 Frequencies --   3201.7976              3209.7950              3260.3208
 Red. masses --      1.1038                 1.0993                 1.1055
 Frc consts  --      6.6667                 6.6730                 6.9233
 IR Inten    --     27.4023                 4.8783                 1.5322

 - Thermochemistry -
 -------------------
 Temperature   298.150 Kelvin.  Pressure   1.00000 Atm.
 Atom     1 has atomic number  6 and mass  12.00000

 Molecular mass:   311.10960 amu.
 Principal axes and moments of inertia in atomic units:
                           1         2         3
     Eigenvalues --  2964.96048********************
           X            0.71643  -0.69673   0.03593
           Y            0.69534   0.70890  -0.11815
           Z            0.05685   0.10963   0.99235
 This molecule is an asymmetric top.
 Rotational symmetry number  1.
 Warning -- assumption of classical behavior for rotation
           may cause significant error
 Rotational temperatures (Kelvin)      0.02921     0.00650     0.00615
 Rotational constants (GHZ):           0.60869     0.13550     0.12807
 Zero-point vibrational energy    1013981.5 (Joules/Mol)
                                  242.34739 (Kcal/Mol)
 Warning -- explicit consideration of  33 degrees of freedom as
           vibrations may cause significant error
 Vibrational temperatures:     21.49    28.05    57.00    68.08   102.38
          (Kelvin)            116.20   128.78   168.18   179.82   201.37
                              225.59   236.60   267.50   274.84   315.20
                              326.23   349.11   361.62   368.84   384.33
                              407.97   451.66   463.48   480.28   543.12
                              562.38   564.10   583.17   643.26   660.23
                              741.33   791.38   830.09   939.55   973.26
                             1100.12  1151.62  1166.82  1175.60  1192.54
                             1203.20  1212.16  1237.52  1290.54  1307.11
                             1332.18  1343.50  1440.27  1503.75  1516.53
                             1521.79  1524.82  1554.92  1584.87  1603.69
                             1625.47  1628.02  1690.20  1694.94  1697.07
                             1754.67  1769.76  1772.64  1794.37  1818.49
                             1929.31  1936.45  1946.75  2002.53  2008.70
                             2023.26  2033.06  2046.55  2054.16  2057.58
                             2070.16  2075.80  2092.58  2108.59  2117.39
                             2146.39  2157.00  2160.06  2164.54  2167.27
                             2169.87  2188.15  2191.13  2194.60  2200.20
                             2203.01  2206.91  2211.57  2218.60  2225.31
                             2231.95  2697.32  4372.91  4425.56  4432.45
                             4434.15  4436.86  4453.61  4456.46  4460.68
                             4484.00  4490.09  4516.28  4533.53  4538.94
                             4545.05  4547.27  4547.81  4550.86  4559.82
                             4576.68  4581.41  4588.04  4596.25  4601.03
                             4606.67  4618.18  4690.87

 Zero-point correction=                           0.386205 (Hartree/Particle)
 Thermal correction to Energy=                    0.407911
 Thermal correction to Enthalpy=                  0.408855
 Thermal correction to Gibbs Free Energy=         0.333033
 Sum of electronic and zero-point Energies=          -3324.089397
 Sum of electronic and thermal Energies=             -3324.067691
 Sum of electronic and thermal Enthalpies=           -3324.066747
 Sum of electronic and thermal Free Energies=        -3324.142569

                     E (Thermal)             CV                S
                      KCal/Mol        Cal/Mol-Kelvin    Cal/Mol-Kelvin
 Total                  255.968             78.282            159.581
 Electronic               0.000              0.000              0.000
 Translational            0.889              2.981             43.101
 Rotational               0.889              2.981             34.675
 Vibrational            254.191             72.320             81.805
 Vibration     1          0.593              1.986              7.214
 Vibration     2          0.593              1.986              6.685
 Vibration     3          0.594              1.981              5.278
 Vibration     4          0.595              1.979              4.926
 Vibration     5          0.598              1.968              4.121
 Vibration     6          0.600              1.962              3.872
 Vibration     7          0.602              1.957              3.671
 Vibration     8          0.608              1.935              3.151
 Vibration     9          0.610              1.928              3.022
 Vibration    10          0.615              1.913              2.804
 Vibration    11          0.620              1.895              2.588
 Vibration    12          0.623              1.886              2.498
 Vibration    13          0.632              1.859              2.268
 Vibration    14          0.634              1.852              2.218
 Vibration    15          0.647              1.812              1.967
 Vibration    16          0.650              1.800              1.905
 Vibration    17          0.659              1.775              1.783
 Vibration    18          0.663              1.761              1.721
 Vibration    19          0.666              1.752              1.686
 Vibration    20          0.672              1.733              1.615
 Vibration    21          0.682              1.704              1.512
 Vibration    22          0.702              1.647              1.342
 Vibration    23          0.707              1.631              1.299
 Vibration    24          0.715              1.608              1.242
 Vibration    25          0.748              1.518              1.049
 Vibration    26          0.759              1.490              0.997
 Vibration    27          0.760              1.487              0.992
 Vibration    28          0.770              1.459              0.943
 Vibration    29          0.806              1.367              0.805
 Vibration    30          0.817              1.341              0.769
 Vibration    31          0.870              1.216              0.621
 Vibration    32          0.905              1.140              0.544
 Vibration    33          0.933              1.081              0.491

 Optimization completed.
    -- Stationary point found.
 Normal termination of Gaussian 16 at Mon Mar 13 14:11:40 2023.
