 Gaussian 16, Revision B.01,
 Gaussian 16:  ES64L-G16RevB.01 20-Dec-2017

 ------------------------------------------------------------------
 # opt=(calcfc,tight) freq cam-b3lyp/gen nosymm pseudo=read scf=xqc
 ------------------------------------------------------------------

 ---------------------------
 6_test_opt_freq_from_IRC_re
 ---------------------------
 Symbolic Z-matrix:
 Charge =  0 Multiplicity = 1

 SCF Done:  E(RCAM-B3LYP) =  -3324.47389393     A.U. after   14 cycles
 SCF Done:  E(RCAM-B3LYP) =  -3324.47417071     A.U. after   12 cycles
 SCF Done:  E(RCAM-B3LYP) =  -3324.47668085     A.U. after   14 cycles
 SCF Done:  E(RCAM-B3LYP) =  -3324.40464426     A.U. after   15 cycles
 SCF Done:  E(RCAM-B3LYP) =  -3324.48844403     A.U. after   13 cycles
 SCF Done:  E(RCAM-B3LYP) =  -3324.44375076     A.U. after   14 cycles
 SCF Done:  E(RCAM-B3LYP) =  -3324.49195422     A.U. after   12 cycles
 SCF Done:  E(RCAM-B3LYP) =  -3324.49432278     A.U. after   13 cycles
 SCF Done:  E(RCAM-B3LYP) =  -3324.49585297     A.U. after   12 cycles
 SCF Done:  E(RCAM-B3LYP) =  -3324.49748316     A.U. after   12 cycles
 SCF Done:  E(RCAM-B3LYP) =  -3324.51260252     A.U. after    6 cycles
 SCF Done:  E(RCAM-B3LYP) =  -3324.51260253     A.U. after    6 cycles
 SCF Done:  E(RCAM-B3LYP) =  -3324.51260253     A.U. after    6 cycles
 SCF Done:  E(RCAM-B3LYP) =  -3324.51260254     A.U. after    5 cycles
 SCF Done:  E(RCAM-B3LYP) =  -3324.51260254     A.U. after    4 cycles
 SCF Done:  E(RCAM-B3LYP) =  -3324.51260254     A.U. after    4 cycles
 SCF Done:  E(RCAM-B3LYP) =  -3324.51260254     A.U. after    4 cycles
 SCF Done:  E(RCAM-B3LYP) =  -3324.51260254     A.U. after    3 cycles
 SCF Done:  E(RCAM-B3LYP) =  -3324.51260254     A.U. after    4 cycles
 Optimization completed.
    -- Stationary point found.
 Normal termination of Gaussian 16 at Mon Mar 13 14:46:53 2023.

 ----------------------------------------------------------------------
 #N Geom=AllCheck Guess=TCheck SCRF=Check GenChk RCAM-B3LYP/ChkBas Freq
 ----------------------------------------------------------------------

 Structure from the checkpoint file:  "6_test_opt_freq_from_IRC_re.chk"
 ---------------------------
 6_test_opt_freq_from_IRC_re
 ---------------------------
 Charge =  0 Multiplicity = 1

                          Input orientation:
 ---------------------------------------------------------------------
 Center     Atomic      Atomic             Coordinates (Angstroms)
 Number     Number       Type             X           Y           Z
 ---------------------------------------------------------------------
      1          6           0        1.389254    1.559896    1.287242
      2          6           0        1.129902    1.521900   -0.223168
      3          8           0        0.051836    1.635385    1.835071
      4          6           0        2.204931    2.733832    1.772765
      5          1           0        1.652183    0.687944   -0.692318
      6          1           0        1.347336    2.472850   -0.719727
      7          1           0        2.288233    2.722458    2.861381
      8          1           0        1.750327    3.680120    1.466212
      9          1           0        3.214140    2.678910    1.354960
     10          1           0        1.804931    0.599790    1.603066
     11         35           0        1.549446   -1.896622    0.439835
     12          6           0       -0.846705    1.345665    0.893432
     13          8           0       -2.021055    1.164458    1.093830
     14          8           0       -0.280930    1.276708   -0.322605
     15          7           0       -2.409624   -2.802411   -0.157506
     16          6           0       -3.900172   -2.681498    0.046446
     17          6           0       -4.749378   -2.449703   -1.191718
     18          1           0       -4.042820   -1.855359    0.740948
     19          1           0       -4.207140   -3.601068    0.552509
     20          1           0       -5.795452   -2.449194   -0.875359
     21          1           0       -4.549651   -1.481680   -1.650945
     22          1           0       -4.638541   -3.231588   -1.944926
     23          6           0       -2.124901   -3.975639   -1.068111
     24          6           0       -0.666937   -4.406619   -1.131979
     25          1           0       -2.486327   -3.694256   -2.054746
     26          1           0       -2.755405   -4.792981   -0.706917
     27          1           0       -0.537553   -5.032268   -2.018748
     28          1           0        0.032878   -3.567756   -1.182533
     29          1           0       -0.378052   -4.998281   -0.262562
     30          6           0       -1.769616   -3.093112    1.199242
     31          6           0       -2.121713   -2.118246    2.309927
     32          1           0       -0.688975   -3.063026    1.032674
     33          1           0       -2.076927   -4.110242    1.459259
     34          1           0       -1.433328   -2.319092    3.133953
     35          1           0       -1.975648   -1.075332    2.022789
     36          1           0       -3.137798   -2.242452    2.691365
     37          6           0       -1.813322   -1.494637   -0.693915
     38          6           0       -1.751579   -1.327148   -2.202111
     39          1           0       -0.790544   -1.449942   -0.305066
     40          1           0       -2.385033   -0.689160   -0.234189
     41          1           0       -1.364031   -0.318692   -2.364504
     42          1           0       -1.046815   -2.018300   -2.668045
     43          1           0       -2.712861   -1.400451   -2.713397
 ---------------------------------------------------------------------

 SCF Done:  E(RCAM-B3LYP) =  -3324.51260254     A.U. after    1 cycles

 Alpha  occ. eigenvalues -- -482.58222 -61.66366 -56.23159 -56.23128 -56.23108
 Alpha  occ. eigenvalues --  -19.25909 -19.25444 -19.19418 -14.53678 -10.42395
 Alpha  occ. eigenvalues --  -10.33607 -10.32914 -10.30907 -10.30764 -10.30333
 Alpha  occ. eigenvalues --  -10.29602 -10.28915 -10.26199 -10.25837 -10.25735
 Alpha  occ. eigenvalues --  -10.24824  -8.44406  -6.45378  -6.45332  -6.45306
 Alpha  occ. eigenvalues --   -2.57671  -2.57664  -2.57642  -2.57606  -2.57604
 Alpha  occ. eigenvalues --   -1.22859  -1.11160  -1.10510  -1.10140  -0.89502
 Alpha  occ. eigenvalues --   -0.87950  -0.86994  -0.86849  -0.82829  -0.77855
 Alpha  occ. eigenvalues --   -0.75312  -0.74843  -0.73126  -0.70324  -0.67649
 Alpha  occ. eigenvalues --   -0.66311  -0.65916  -0.60664  -0.59942  -0.59340
 Alpha  occ. eigenvalues --   -0.58857  -0.56337  -0.56161  -0.54347  -0.54068
 Alpha  occ. eigenvalues --   -0.51602  -0.50995  -0.49836  -0.49680  -0.49119
 Alpha  occ. eigenvalues --   -0.48722  -0.48185  -0.47642  -0.47085  -0.46403
 Alpha  occ. eigenvalues --   -0.46116  -0.45695  -0.45312  -0.44409  -0.43625
 Alpha  occ. eigenvalues --   -0.43172  -0.42654  -0.42386  -0.42107  -0.41510
 Alpha  occ. eigenvalues --   -0.40016  -0.35380  -0.35088  -0.34482  -0.23183
 Alpha  occ. eigenvalues --   -0.22986  -0.22925
 Alpha virt. eigenvalues --    0.09169   0.10496   0.11529   0.13135   0.13828
 Alpha virt. eigenvalues --    0.14269   0.14628   0.15852   0.16113   0.16462
 Alpha virt. eigenvalues --    0.16841   0.18021   0.19032   0.19463   0.19809

 Mulliken charges:
               1
     1  C    0.120663
     2  C    0.030774
     3  O   -0.444726
     4  C   -0.329671
     5  H    0.165269
     6  H    0.104350
     7  H    0.128477
     8  H    0.108537
     9  H    0.118864
    10  H    0.169732
    11  Br  -0.754585
    12  C    0.737279
    13  O   -0.462529
    14  O   -0.456484
    15  N   -0.377448
    16  C   -0.062039
    17  C   -0.340684
    18  H    0.164748
    19  H    0.128043
    20  H    0.132883
    21  H    0.144289
    22  H    0.123008
    23  C   -0.062648
    24  C   -0.347068
    25  H    0.138798
    26  H    0.122452
    27  H    0.113683
    28  H    0.184278
    29  H    0.131523
    30  C   -0.081691
    31  C   -0.357153
    32  H    0.201033
    33  H    0.111638
    34  H    0.143868
    35  H    0.167374
    36  H    0.101574
    37  C   -0.095407
    38  C   -0.346089
    39  H    0.188086
    40  H    0.157910
    41  H    0.153914
    42  H    0.127438
    43  H    0.097737
 Sum of Mulliken charges =  -0.00000

 Dipole moment (field-independent basis, Debye):
    X=             -7.5314    Y=             -2.5419    Z=             -2.7666  Tot=              8.4165
 Quadrupole moment (field-independent basis, Debye-Ang):
   XX=           -105.2065   YY=            -99.9742   ZZ=           -117.3395
   XY=             38.5458   XZ=              4.1797   YZ=              3.1035

  Exact polarizability: 175.075  17.605 159.307   6.242   7.053 144.398
 Approx polarizability: 199.467   7.535 178.837   0.289   1.570 176.102

                      1                      2                      3
                      A                      A                      A
 Frequencies --     20.2071                38.4373                42.6678
 Red. masses --      5.3628                 5.7536                 4.5812
 Frc consts  --      0.0013                 0.0050                 0.0049
 IR Inten    --      5.1437                 0.7907                 1.0319

                      4                      5                      6
                      A                      A                      A
 Frequencies --     55.9133                70.6453                75.3553
 Red. masses --      3.7460                 3.9599                 5.4787
 Frc consts  --      0.0069                 0.0116                 0.0183
 IR Inten    --      1.5667                 4.8056                 0.2728

                      7                      8                      9
                      A                      A                      A
 Frequencies --     80.6371                93.2306               104.1411
 Red. masses --      3.9567                 6.0405                 3.2946
 Frc consts  --      0.0152                 0.0309                 0.0211
 IR Inten    --      6.4025                 1.8767                 6.4961

                     10                     11                     12
                      A                      A                      A
 Frequencies --    113.0660               130.6774               153.8322
 Red. masses --      3.3472                 5.4809                 2.4521
 Frc consts  --      0.0252                 0.0551                 0.0342
 IR Inten    --      5.7208                32.9874                 1.6419

                     13                     14                     15
                      A                      A                      A
 Frequencies --    156.3305               182.7674               206.9566
 Red. masses --      2.4354                 1.6651                 2.5674
 Frc consts  --      0.0351                 0.0328                 0.0648
 IR Inten    --      3.6491                 1.8086                 1.2075

                     16                     17                     18
                      A                      A                      A
 Frequencies --    217.5673               237.1980               240.1568
 Red. masses --      1.6535                 1.2519                 1.2162
 Frc consts  --      0.0461                 0.0415                 0.0413
 IR Inten    --      0.3387                 0.2401                 7.0892

                     19                     20                     21
                      A                      A                      A
 Frequencies --    254.5274               262.3081               276.2695
 Red. masses --      1.7968                 1.4381                 1.2539
 Frc consts  --      0.0686                 0.0583                 0.0564
 IR Inten    --      0.4803                 0.1486                 0.0577

                     22                     23                     24
                      A                      A                      A
 Frequencies --    291.4645               316.6881               352.2573
 Red. masses --      1.3745                 2.5629                 2.1765
 Frc consts  --      0.0688                 0.1514                 0.1591
 IR Inten    --      0.1033                 3.7927                 0.0912

                     25                     26                     27
                      A                      A                      A
 Frequencies --    358.6821               385.7448               408.3416
 Red. masses --      2.4228                 2.4772                 2.3909
 Frc consts  --      0.1836                 0.2172                 0.2349
 IR Inten    --      0.3965                 0.6194                 3.3432

                     28                     29                     30
                      A                      A                      A
 Frequencies --    448.0854               463.1094               532.8992
 Red. masses --      2.6587                 2.3271                 2.6134
 Frc consts  --      0.3145                 0.2941                 0.4373
 IR Inten    --      4.5356                 0.5668                 0.3618

                     31                     32                     33
                      A                      A                      A
 Frequencies --    548.5438               552.4572               674.6327
 Red. masses --      2.9325                 6.7781                 3.6509
 Frc consts  --      0.5199                 1.2189                 0.9790
 IR Inten    --      1.2122                 1.0382                 3.6667

                     34                     35                     36
                      A                      A                      A
 Frequencies --    681.5774               734.6246               789.1070
 Red. masses --      2.7699                 9.2171                12.0123
 Frc consts  --      0.7581                 2.9307                 4.4070
 IR Inten    --      1.9419                 6.0536                41.4956

                     37                     38                     39
                      A                      A                      A
 Frequencies --    810.2581               819.4058               839.5660
 Red. masses --      1.3752                 1.1415                 1.2110
 Frc consts  --      0.5320                 0.4516                 0.5029
 IR Inten    --     14.9371                 6.9645                24.4868

                     40                     41                     42
                      A                      A                      A
 Frequencies --    846.4409               877.8539               903.6747
 Red. masses --      1.1338                 3.9372                 1.6469
 Frc consts  --      0.4786                 1.7877                 0.7924
 IR Inten    --      1.9525                 4.8830                 0.6099

                     43                     44                     45
                      A                      A                      A
 Frequencies --    934.5120               936.5015               949.1720
 Red. masses --      1.9155                 1.9473                 1.9620
 Frc consts  --      0.9856                 1.0063                 1.0414
 IR Inten    --      2.1876                 0.6198                 1.4624

                     46                     47                     48
                      A                      A                      A
 Frequencies --    978.6600              1000.5091              1041.5003
 Red. masses --      1.3634                 3.7801                 1.9327
 Frc consts  --      0.7694                 2.2295                 1.2352
 IR Inten    --      5.4795                 6.3237                13.1603

                     49                     50                     51
                      A                      A                      A
 Frequencies --   1052.3196              1070.5985              1080.0284
 Red. masses --      2.3058                 2.8545                 2.4160
 Frc consts  --      1.5044                 1.9277                 1.6604
 IR Inten    --     14.3583                25.5440                19.3073

                     52                     53                     54
                      A                      A                      A
 Frequencies --   1106.4595              1108.5710              1124.2170
 Red. masses --      1.7253                 1.8866                 3.5696
 Frc consts  --      1.2445                 1.3660                 2.6581
 IR Inten    --      7.3539                14.6892                 3.5304

                     55                     56                     57
                      A                      A                      A
 Frequencies --   1128.2638              1140.9769              1167.9584
 Red. masses --      1.6826                 4.2264                 2.0028
 Frc consts  --      1.2620                 3.2417                 1.6097
 IR Inten    --      8.1148               155.2992                 2.3202

                     58                     59                     60
                      A                      A                      A
 Frequencies --   1172.7368              1181.3429              1183.5572
 Red. masses --      2.4325                 1.6639                 1.9957
 Frc consts  --      1.9711                 1.3681                 1.6472
 IR Inten    --     47.0932                 3.1438                19.7499

                     61                     62                     63
                      A                      A                      A
 Frequencies --   1211.5269              1236.5824              1240.9802
 Red. masses --      2.1415                 1.9791                 1.8957
 Frc consts  --      1.8519                 1.7831                 1.7201
 IR Inten    --     19.3218                 7.3813                 8.7945

                     64                     65                     66
                      A                      A                      A
 Frequencies --   1258.4121              1272.6138              1340.0415
 Red. masses --      1.9490                 1.2888                 1.1193
 Frc consts  --      1.8185                 1.2298                 1.1842
 IR Inten    --    175.9895                45.8008                 0.9234

                     67                     68                     69
                      A                      A                      A
 Frequencies --   1351.1136              1386.9365              1396.8081
 Red. masses --      1.1043                 1.1911                 1.3258
 Frc consts  --      1.1877                 1.3499                 1.5241
 IR Inten    --      4.1710                14.1147                14.7000

                     70                     71                     72
                      A                      A                      A
 Frequencies --   1408.1893              1415.7274              1418.8004
 Red. masses --      1.1667                 1.3722                 1.2531
 Frc consts  --      1.3632                 1.6204                 1.4862
 IR Inten    --     10.4980                17.5607                 1.5062

                     73                     74                     75
                      A                      A                      A
 Frequencies --   1430.8204              1437.0999              1442.0139
 Red. masses --      1.2368                 1.2230                 1.4094
 Frc consts  --      1.4918                 1.4881                 1.7268
 IR Inten    --      4.4090                 5.3486                31.2198

                     76                     77                     78
                      A                      A                      A
 Frequencies --   1444.3042              1455.7940              1463.5873
 Red. masses --      1.2642                 1.3046                 1.5605
 Frc consts  --      1.5538                 1.6290                 1.9695
 IR Inten    --      7.7409                10.3516                32.2704

                     79                     80                     81
                      A                      A                      A
 Frequencies --   1467.3634              1479.4684              1484.7987
 Red. masses --      1.2980                 1.2537                 1.1991
 Frc consts  --      1.6466                 1.6168                 1.5576
 IR Inten    --     11.1258                26.2752                 6.7494

                     82                     83                     84
                      A                      A                      A
 Frequencies --   1505.8133              1507.9670              1510.4169
 Red. masses --      1.0619                 1.0603                 1.0486
 Frc consts  --      1.4186                 1.4206                 1.4095
 IR Inten    --      6.1571                 0.7949                14.3876

                     85                     86                     87
                      A                      A                      A
 Frequencies --   1513.1297              1514.9806              1516.1824
 Red. masses --      1.0679                 1.0537                 1.0512
 Frc consts  --      1.4406                 1.4249                 1.4237
 IR Inten    --     12.4955                15.9159                10.1838

                     88                     89                     90
                      A                      A                      A
 Frequencies --   1519.5849              1523.9872              1526.7079
 Red. masses --      1.0478                 1.0958                 1.0622
 Frc consts  --      1.4256                 1.4995                 1.4587
 IR Inten    --      5.8819                10.6172                21.5980

                     91                     92                     93
                      A                      A                      A
 Frequencies --   1527.9709              1530.9098              1536.2920
 Red. masses --      1.0605                 1.0633                 1.0588
 Frc consts  --      1.4587                 1.4682                 1.4724
 IR Inten    --      7.6280                 3.5147                 9.9731

                     94                     95                     96
                      A                      A                      A
 Frequencies --   1537.5262              1544.5440              1561.5504
 Red. masses --      1.0744                 1.0822                 1.0988
 Frc consts  --      1.4965                 1.5211                 1.5786
 IR Inten    --     14.4900                20.0164                 2.2907

                     97                     98                     99
                      A                      A                      A
 Frequencies --   1899.9209              3055.2462              3071.6045
 Red. masses --     12.5120                 1.0750                 1.0615
 Frc consts  --     26.6102                 5.9120                 5.9009
 IR Inten    --    634.7550                82.0546               142.2333

                    100                    101                    102
                      A                      A                      A
 Frequencies --   3077.2939              3081.8242              3085.9266
 Red. masses --      1.0378                 1.0417                 1.0627
 Frc consts  --      5.7902                 5.8293                 5.9625
 IR Inten    --      7.1026                79.7958                49.5081

                    103                    104                    105
                      A                      A                      A
 Frequencies --   3090.0291              3094.9975              3098.5461
 Red. masses --      1.0385                 1.0370                 1.0388
 Frc consts  --      5.8421                 5.8529                 5.8763
 IR Inten    --     12.3520                 3.5396                 9.3615

                    106                    107                    108
                      A                      A                      A
 Frequencies --   3102.5372              3109.3260              3124.7530
 Red. masses --      1.0694                 1.0685                 1.0895
 Frc consts  --      6.0651                 6.0865                 6.2675
 IR Inten    --      8.4115                36.5620                 8.0145

                    109                    110                    111
                      A                      A                      A
 Frequencies --   3138.3405              3156.9846              3159.8106
 Red. masses --      1.1089                 1.1026                 1.1041
 Frc consts  --      6.4351                 6.4747                 6.4953
 IR Inten    --     35.7686                12.0023                16.1876

                    112                    113                    114
                      A                      A                      A
 Frequencies --   3163.6553              3164.7304              3167.8185
 Red. masses --      1.1029                 1.1023                 1.1023
 Frc consts  --      6.5039                 6.5048                 6.5172
 IR Inten    --      3.0624                 8.0306                15.4902

                    115                    116                    117
                      A                      A                      A
 Frequencies --   3169.0372              3171.1936              3172.7574
 Red. masses --      1.1031                 1.1013                 1.1011
 Frc consts  --      6.5272                 6.5256                 6.5303
 IR Inten    --     12.3159                17.2690                 0.5907

                    118                    119                    120
                      A                      A                      A
 Frequencies --   3177.1244              3181.7417              3185.0056
 Red. masses --      1.1070                 1.1035                 1.0988
 Frc consts  --      6.5836                 6.5822                 6.5674
 IR Inten    --      0.6737                 0.4033                 3.3762

                    121                    122                    123
                      A                      A                      A
 Frequencies --   3187.3056              3195.4011              3201.1783
 Red. masses --      1.1013                 1.0991                 1.1023
 Frc consts  --      6.5918                 6.6124                 6.6552
 IR Inten    --      4.9936                16.0498                 9.3645

 - Thermochemistry -
 -------------------
 Temperature   298.150 Kelvin.  Pressure   1.00000 Atm.
 Atom     1 has atomic number  6 and mass  12.00000

 Molecular mass:   311.10960 amu.
 Principal axes and moments of inertia in atomic units:
                           1         2         3
     Eigenvalues --  3880.759797666.552379421.81792
           X            0.64855   0.75082  -0.12512
           Y            0.71488  -0.65728  -0.23861
           Z            0.26139  -0.06531   0.96302
 This molecule is an asymmetric top.
 Rotational symmetry number  1.
 Warning -- assumption of classical behavior for rotation
           may cause significant error
 Rotational temperatures (Kelvin)      0.02232     0.01130     0.00919
 Rotational constants (GHZ):           0.46505     0.23540     0.19155
 Zero-point vibrational energy    1019283.1 (Joules/Mol)
                                  243.61451 (Kcal/Mol)
 Warning -- explicit consideration of  32 degrees of freedom as
           vibrations may cause significant error
 Vibrational temperatures:     29.07    55.30    61.39    80.45   101.64
          (Kelvin)            108.42   116.02   134.14   149.84   162.68
                              188.02   221.33   224.92   262.96   297.76
                              313.03   341.28   345.53   366.21   377.40
                              397.49   419.35   455.64   506.82   516.06
                              555.00   587.51   644.69   666.31   766.72
                              789.23   794.86   970.65   980.64  1056.96
                             1135.35  1165.78  1178.94  1207.95  1217.84
                             1263.04  1300.19  1344.55  1347.42  1365.65
                             1408.07  1439.51  1498.49  1514.05  1540.35
                             1553.92  1591.95  1594.99  1617.50  1623.32
                             1641.61  1680.43  1687.31  1699.69  1702.87
                             1743.12  1779.17  1785.49  1810.57  1831.01
                             1928.02  1943.95  1995.49  2009.70  2026.07
                             2036.92  2041.34  2058.63  2067.67  2074.74
                             2078.03  2094.56  2105.78  2111.21  2128.63
                             2136.29  2166.53  2169.63  2173.15  2177.06
                             2179.72  2181.45  2186.34  2192.68  2196.59
                             2198.41  2202.64  2210.38  2212.16  2222.25
                             2246.72  2733.56  4395.82  4419.35  4427.54
                             4434.06  4439.96  4445.86  4453.01  4458.12
                             4463.86  4473.63  4495.82  4515.37  4542.20
                             4546.26  4551.79  4553.34  4557.78  4559.54
                             4562.64  4564.89  4571.17  4577.82  4582.51
                             4585.82  4597.47  4605.78

 Zero-point correction=                           0.388224 (Hartree/Particle)
 Thermal correction to Energy=                    0.409893
 Thermal correction to Enthalpy=                  0.410838
 Thermal correction to Gibbs Free Energy=         0.335602
 Sum of electronic and zero-point Energies=          -3324.124378
 Sum of electronic and thermal Energies=             -3324.102709
 Sum of electronic and thermal Enthalpies=           -3324.101765
 Sum of electronic and thermal Free Energies=        -3324.177001

                     E (Thermal)             CV                S
                      KCal/Mol        Cal/Mol-Kelvin    Cal/Mol-Kelvin
 Total                  257.212             76.882            158.347
 Electronic               0.000              0.000              0.000
 Translational            0.889              2.981             43.101
 Rotational               0.889              2.981             33.993
 Vibrational            255.435             70.921             81.253
 Vibration     1          0.593              1.986              6.614
 Vibration     2          0.594              1.982              5.338
 Vibration     3          0.595              1.980              5.131
 Vibration     4          0.596              1.975              4.596
 Vibration     5          0.598              1.968              4.135
 Vibration     6          0.599              1.965              4.008
 Vibration     7          0.600              1.962              3.875
 Vibration     8          0.602              1.954              3.591
 Vibration     9          0.605              1.946              3.375
 Vibration    10          0.607              1.939              3.216
 Vibration    11          0.612              1.923              2.936
 Vibration    12          0.619              1.898              2.624
 Vibration    13          0.620              1.896              2.594
 Vibration    14          0.630              1.863              2.300
 Vibration    15          0.641              1.830              2.070
 Vibration    16          0.646              1.814              1.979
 Vibration    17          0.656              1.784              1.824
 Vibration    18          0.657              1.779              1.802
 Vibration    19          0.665              1.755              1.699
 Vibration    20          0.670              1.742              1.646
 Vibration    21          0.678              1.717              1.557
 Vibration    22          0.687              1.690              1.465
 Vibration    23          0.704              1.642              1.327
 Vibration    24          0.729              1.571              1.156
 Vibration    25          0.734              1.557              1.128
 Vibration    26          0.754              1.501              1.017
 Vibration    27          0.773              1.452              0.932
 Vibration    28          0.807              1.365              0.802
 Vibration    29          0.821              1.332              0.757
 Vibration    30          0.888              1.177              0.581
 Vibration    31          0.904              1.143              0.547
 Vibration    32          0.908              1.134              0.539

 Optimization completed.
    -- Stationary point found.
 Normal termination of Gaussian 16 at Mon Mar 13 14:51:26 2023.
