 Gaussian 16, Revision B.01,
 Gaussian 16:  ES64L-G16RevB.01 20-Dec-2017

 ----------------------------------------------------------------------
 # irc=(calcfc,maxpoints=80,recalc=3, maxcycle=1000) cam-b3lyp/gen nosy
 mm pseudo=read scf=xqc
 ----------------------------------------------------------------------

 ------
 IRC_re
 ------
 Symbolic Z-matrix:
 Charge =  0 Multiplicity = 1

 SCF Done:  E(RCAM-B3LYP) =  -3135.89444377     A.U. after   14 cycles
 SCF Done:  E(RCAM-B3LYP) =  -3135.89486676     A.U. after   12 cycles
 SCF Done:  E(RCAM-B3LYP) =  -3135.89597808     A.U. after   11 cycles
 SCF Done:  E(RCAM-B3LYP) =  -3135.89740297     A.U. after   11 cycles
 SCF Done:  E(RCAM-B3LYP) =  -3135.89863060     A.U. after   11 cycles
 SCF Done:  E(RCAM-B3LYP) =  -3135.89863639     A.U. after    8 cycles
 SCF Done:  E(RCAM-B3LYP) =  -3135.89934995     A.U. after   11 cycles
 SCF Done:  E(RCAM-B3LYP) =  -3135.89937836     A.U. after    9 cycles
 SCF Done:  E(RCAM-B3LYP) =  -3135.89936840     A.U. after    9 cycles
 SCF Done:  E(RCAM-B3LYP) =  -3135.89937846     A.U. after    9 cycles
 SCF Done:  E(RCAM-B3LYP) =  -3135.92347824     A.U. after   11 cycles
 SCF Done:  E(RCAM-B3LYP) =  -3135.92394769     A.U. after   10 cycles
 SCF Done:  E(RCAM-B3LYP) =  -3135.92433210     A.U. after   10 cycles
 SCF Done:  E(RCAM-B3LYP) =  -3135.92463671     A.U. after   10 cycles
 SCF Done:  E(RCAM-B3LYP) =  -3135.92486921     A.U. after   10 cycles
 SCF Done:  E(RCAM-B3LYP) =  -3135.92503890     A.U. after   10 cycles
 SCF Done:  E(RCAM-B3LYP) =  -3135.92515712     A.U. after   10 cycles
 SCF Done:  E(RCAM-B3LYP) =  -3135.92523682     A.U. after   10 cycles
 SCF Done:  E(RCAM-B3LYP) =  -3135.92529447     A.U. after   10 cycles
 SCF Done:  E(RCAM-B3LYP) =  -3135.92534208     A.U. after   10 cycles

                          Input orientation:
 ---------------------------------------------------------------------
 Center     Atomic      Atomic             Coordinates (Angstroms)
 Number     Number       Type             X           Y           Z
 ---------------------------------------------------------------------
      1          6           0       -0.834172    1.292188    0.475727
      2          6           0        0.332052    1.711952    1.377278
      3          8           0       -0.605358   -0.016598    0.152910
      4          6           0       -0.942040    2.191241   -0.760882
      5          1           0        0.388106    1.055181    2.242660
      6          1           0        1.272588    1.683429    0.826587
      7          1           0       -1.759202    1.833024   -1.394682
      8          1           0       -0.013725    2.131700   -1.342304
      9          1           0       -1.127240    3.239580   -0.510125
     10          1           0       -1.763548    1.435907    1.067906
     11         35           0        0.214661    3.546131    2.129773
     12          7           0        0.075712   -2.844999   -1.264766
     13          6           0       -1.379710   -2.510542   -0.939895
     14          6           0       -2.222268   -1.948042   -2.069384
     15          1           0       -1.338469   -1.725549   -0.171509
     16          1           0       -1.799745   -3.444771   -0.555847
     17          1           0       -3.257577   -1.949500   -1.718533
     18          1           0       -1.953268   -0.906915   -2.247254
     19          1           0       -2.197779   -2.514939   -3.003298
     20          6           0        0.121915   -3.898927   -2.337815
     21          6           0        1.498983   -4.474093   -2.633239
     22          1           0       -0.296223   -3.451232   -3.236636
     23          1           0       -0.560543   -4.690779   -2.018770
     24          1           0        1.415075   -5.124189   -3.507452
     25          1           0        2.230731   -3.699348   -2.868986
     26          1           0        1.887095   -5.079802   -1.813267
     27          6           0        0.684290   -3.429608    0.002662
     28          6           0        0.450985   -2.624379    1.275059
     29          1           0        1.749692   -3.528038   -0.201715
     30          1           0        0.270406   -4.438210    0.092273
     31          1           0        1.265124   -2.838664    1.971705
     32          1           0        0.386120   -1.542642    1.088704
     33          1           0       -0.484377   -2.913986    1.757816
     34          6           0        0.875239   -1.592247   -1.645013
     35          6           0        0.797873   -1.158856   -3.099786
     36          1           0        1.912065   -1.819829   -1.389807
     37          1           0        0.483412   -0.790526   -0.976764
     38          1           0        1.363898   -0.226449   -3.173298
     39          1           0        1.245301   -1.864721   -3.805123
     40          1           0       -0.216137   -0.934677   -3.427300
 ---------------------------------------------------------------------

 Alpha  occ. eigenvalues -- -482.66828 -61.75086 -56.32042 -56.31715 -56.31704
 Alpha  occ. eigenvalues --  -19.06981 -14.53486 -10.33730 -10.32689 -10.30071
 Alpha  occ. eigenvalues --  -10.29312 -10.29268 -10.26715 -10.26283 -10.24848
 Alpha  occ. eigenvalues --  -10.24711 -10.23725 -10.18922  -8.53320  -6.54999
 Alpha  occ. eigenvalues --   -6.53868  -6.53853  -2.67165  -2.66847  -2.66835
 Alpha  occ. eigenvalues --   -2.65937  -2.65937  -1.10205  -0.95721  -0.89485
 Alpha  occ. eigenvalues --   -0.87630  -0.86890  -0.82793  -0.81958  -0.76150
 Alpha  occ. eigenvalues --   -0.74831  -0.73649  -0.73045  -0.68983  -0.66020
 Alpha  occ. eigenvalues --   -0.60396  -0.59973  -0.58527  -0.58234  -0.55951
 Alpha  occ. eigenvalues --   -0.54480  -0.51619  -0.50799  -0.49830  -0.48926
 Alpha  occ. eigenvalues --   -0.48192  -0.47594  -0.47152  -0.46612  -0.46127
 Alpha  occ. eigenvalues --   -0.45561  -0.44308  -0.44057  -0.43755  -0.42913
 Alpha  occ. eigenvalues --   -0.41964  -0.41654  -0.41392  -0.39231  -0.37104
 Alpha  occ. eigenvalues --   -0.36815  -0.33453  -0.28779  -0.28349  -0.21632
 Alpha  occ. eigenvalues --   -0.21435
 Alpha virt. eigenvalues --    0.08857   0.10892   0.11257   0.12144   0.13123
 Alpha virt. eigenvalues --    0.13890   0.15422   0.16452   0.16846   0.17216
 Alpha virt. eigenvalues --    0.18215   0.19057   0.19311   0.19834   0.20275

 Mulliken charges:
               1
     1  C    0.248917
     2  C   -0.174444
     3  O   -0.671158
     4  C   -0.311104
     5  H    0.124941
     6  H    0.111828
     7  H    0.071081
     8  H    0.062801
     9  H    0.093022
    10  H    0.024224
    11  Br  -0.257113
    12  N   -0.377886
    13  C   -0.075782
    14  C   -0.345529
    15  H    0.220903
    16  H    0.099101
    17  H    0.128408
    18  H    0.159818
    19  H    0.094311
    20  C   -0.051555
    21  C   -0.342258
    22  H    0.145006
    23  H    0.129702
    24  H    0.132326
    25  H    0.134552
    26  H    0.127359
    27  C   -0.060507
    28  C   -0.361473
    29  H    0.131437
    30  H    0.119933
    31  H    0.104857
    32  H    0.195800
    33  H    0.115890
    34  C   -0.094087
    35  C   -0.339519
    36  H    0.104326
    37  H    0.221094
    38  H    0.139150
    39  H    0.095698
    40  H    0.125931
 Sum of Mulliken charges =  -0.00000

 Dipole moment (field-independent basis, Debye):
    X=              1.6267    Y=            -11.6540    Z=             -5.9367  Tot=             13.1798
 Quadrupole moment (field-independent basis, Debye-Ang):
   XX=           -100.6108   YY=            -91.2255   ZZ=            -99.8414
   XY=             -1.9908   XZ=             -1.0375   YZ=              3.8350

  Exact polarizability:   0.000   0.000   0.000   0.000   0.000   0.000
 Approx polarizability: 160.870  -1.266 189.987  -0.232  13.931 164.978

 Normal termination of Gaussian 16 at Tue Mar 14 10:50:04 2023.
