 Gaussian 16, Revision B.01,
 Gaussian 16:  ES64L-G16RevB.01 20-Dec-2017

 ----------------------------------------------------------------------
 # irc=(calcfc,maxpoints=80,recalc=3) cam-b3lyp/gen nosymm pseudo=read
 scf=xqc
 ----------------------------------------------------------------------

 --------
 IRC_5_re
 --------
 Symbolic Z-matrix:
 Charge =  0 Multiplicity = 1

 SCF Done:  E(RCAM-B3LYP) =  -3324.45116302     A.U. after   15 cycles
 SCF Done:  E(RCAM-B3LYP) =  -3324.45166196     A.U. after   11 cycles
 SCF Done:  E(RCAM-B3LYP) =  -3324.45316341     A.U. after   11 cycles
 SCF Done:  E(RCAM-B3LYP) =  -3324.45559063     A.U. after   11 cycles
 SCF Done:  E(RCAM-B3LYP) =  -3324.45870840     A.U. after   11 cycles
 SCF Done:  E(RCAM-B3LYP) =  -3324.46211534     A.U. after   11 cycles
 SCF Done:  E(RCAM-B3LYP) =  -3324.46528264     A.U. after   11 cycles
 SCF Done:  E(RCAM-B3LYP) =  -3324.46764897     A.U. after   11 cycles
 SCF Done:  E(RCAM-B3LYP) =  -3324.46765401     A.U. after    8 cycles
 SCF Done:  E(RCAM-B3LYP) =  -3324.46904710     A.U. after   11 cycles
 SCF Done:  E(RCAM-B3LYP) =  -3324.47388945     A.U. after   10 cycles
 SCF Done:  E(RCAM-B3LYP) =  -3324.47420003     A.U. after   10 cycles
 SCF Done:  E(RCAM-B3LYP) =  -3324.47447871     A.U. after   10 cycles
 SCF Done:  E(RCAM-B3LYP) =  -3324.47472421     A.U. after   10 cycles
 SCF Done:  E(RCAM-B3LYP) =  -3324.47493450     A.U. after   10 cycles
 SCF Done:  E(RCAM-B3LYP) =  -3324.47511086     A.U. after   10 cycles
 SCF Done:  E(RCAM-B3LYP) =  -3324.47525397     A.U. after   10 cycles
 SCF Done:  E(RCAM-B3LYP) =  -3324.47536423     A.U. after   10 cycles
 SCF Done:  E(RCAM-B3LYP) =  -3324.47544523     A.U. after   10 cycles
 SCF Done:  E(RCAM-B3LYP) =  -3324.47549957     A.U. after   10 cycles

                          Input orientation:
 ---------------------------------------------------------------------
 Center     Atomic      Atomic             Coordinates (Angstroms)
 Number     Number       Type             X           Y           Z
 ---------------------------------------------------------------------
      1          6           0        1.205110    1.316416    0.789656
      2          6           0        1.733790    2.191923   -0.346812
      3          8           0        0.036069    0.610276    0.376776
      4          6           0        0.990036    2.078756    2.089298
      5          1           0        1.676630    1.659642   -1.294401
      6          1           0        1.209288    3.137514   -0.417558
      7          1           0        0.666038    1.391087    2.875575
      8          1           0        0.223322    2.839976    1.944239
      9          1           0        1.920592    2.554302    2.409084
     10          1           0        1.941215    0.522627    0.957696
     11         35           0        3.641691    2.605856   -0.083243
     12          6           0       -1.120490    1.366309   -0.046642
     13          8           0       -2.071976    0.601864   -0.310281
     14          8           0       -1.006016    2.586054   -0.101845
     15          7           0       -2.134740   -2.847293   -0.055558
     16          6           0       -3.355733   -1.950247    0.167854
     17          6           0       -4.427961   -1.956251   -0.909906
     18          1           0       -2.951817   -0.937807    0.284033
     19          1           0       -3.793345   -2.300055    1.105943
     20          1           0       -5.158395   -1.199574   -0.613634
     21          1           0       -4.054459   -1.663444   -1.889166
     22          1           0       -4.960282   -2.906365   -0.997438
     23          6           0       -2.582298   -4.161330   -0.644586
     24          6           0       -1.517843   -5.236232   -0.796556
     25          1           0       -3.016701   -3.933948   -1.615879
     26          1           0       -3.389727   -4.516920    0.000355
     27          1           0       -1.997584   -6.113326   -1.237636
     28          1           0       -0.711795   -4.938164   -1.468845
     29          1           0       -1.085407   -5.548586    0.155108
     30          6           0       -1.509072   -3.108777    1.305028
     31          6           0       -1.285157   -1.882784    2.177804
     32          1           0       -0.559283   -3.607122    1.109890
     33          1           0       -2.167969   -3.824094    1.805250
     34          1           0       -0.690651   -2.204323    3.037165
     35          1           0       -0.746239   -1.080546    1.667585
     36          1           0       -2.219851   -1.471817    2.560012
     37          6           0       -1.065351   -2.181614   -0.916684
     38          6           0       -1.486686   -1.731114   -2.301368
     39          1           0       -0.252467   -2.907671   -0.965896
     40          1           0       -0.730055   -1.300094   -0.371090
     41          1           0       -0.573256   -1.438889   -2.825956
     42          1           0       -1.971059   -2.505033   -2.903124
     43          1           0       -2.107515   -0.838476   -2.227948
 ---------------------------------------------------------------------

 Alpha  occ. eigenvalues -- -482.69011 -61.77270 -56.34240 -56.33893 -56.33882
 Alpha  occ. eigenvalues --  -19.18717 -19.11502 -19.11113 -14.54959 -10.34892
 Alpha  occ. eigenvalues --  -10.34180 -10.33761 -10.31555 -10.31440 -10.30195
 Alpha  occ. eigenvalues --  -10.28296 -10.27544 -10.26880 -10.26847 -10.26474
 Alpha  occ. eigenvalues --  -10.20895  -8.55514  -6.57233  -6.56043  -6.56022
 Alpha  occ. eigenvalues --   -2.69392  -2.69059  -2.69042  -2.68098  -2.68098
 Alpha  occ. eigenvalues --   -1.11736  -1.11193  -1.02081  -0.98492  -0.90689
 Alpha  occ. eigenvalues --   -0.89054  -0.88284  -0.85845  -0.83955  -0.78878
 Alpha  occ. eigenvalues --   -0.77096  -0.75370  -0.74374  -0.71565  -0.67141
 Alpha  occ. eigenvalues --   -0.65381  -0.61810  -0.61580  -0.59349  -0.57753
 Alpha  occ. eigenvalues --   -0.55833  -0.55147  -0.53510  -0.52236  -0.51711
 Alpha  occ. eigenvalues --   -0.50724  -0.49598  -0.48706  -0.48630  -0.48094
 Alpha  occ. eigenvalues --   -0.47816  -0.47595  -0.47142  -0.46573  -0.46181
 Alpha  occ. eigenvalues --   -0.45296  -0.44587  -0.44127  -0.43764  -0.42978
 Alpha  occ. eigenvalues --   -0.42588  -0.41222  -0.40514  -0.39799  -0.38405
 Alpha  occ. eigenvalues --   -0.36021  -0.31680  -0.30307  -0.29351  -0.28164
 Alpha  occ. eigenvalues --   -0.26666  -0.24810
 Alpha virt. eigenvalues --    0.08015   0.09212   0.10503   0.11245   0.12389
 Alpha virt. eigenvalues --    0.12928   0.14298   0.15326   0.16056   0.16694
 Alpha virt. eigenvalues --    0.17298   0.18133   0.18526   0.18603   0.18975

 Mulliken charges:
               1
     1  C    0.203552
     2  C   -0.189659
     3  O   -0.539011
     4  C   -0.329425
     5  H    0.133765
     6  H    0.187710
     7  H    0.083257
     8  H    0.145699
     9  H    0.105445
    10  H    0.083737
    11  Br  -0.219578
    12  C    0.637362
    13  O   -0.580882
    14  O   -0.519789
    15  N   -0.377345
    16  C   -0.090036
    17  C   -0.339530
    18  H    0.232959
    19  H    0.114735
    20  H    0.147295
    21  H    0.136605
    22  H    0.100683
    23  C   -0.056457
    24  C   -0.347951
    25  H    0.151509
    26  H    0.135885
    27  H    0.137320
    28  H    0.139218
    29  H    0.130080
    30  C   -0.068638
    31  C   -0.350996
    32  H    0.137793
    33  H    0.125533
    34  H    0.117975
    35  H    0.189419
    36  H    0.129848
    37  C   -0.075722
    38  C   -0.350707
    39  H    0.109162
    40  H    0.211623
    41  H    0.132702
    42  H    0.090397
    43  H    0.184459
 Sum of Mulliken charges =  -0.00000

 Dipole moment (field-independent basis, Debye):
    X=             -4.5345    Y=            -14.7192    Z=              0.2333  Tot=             15.4036
 Quadrupole moment (field-independent basis, Debye-Ang):
   XX=           -118.9250   YY=           -100.8660   ZZ=           -112.5532
   XY=             19.3732   XZ=             -0.4969   YZ=              2.2618

  Exact polarizability:   0.000   0.000   0.000   0.000   0.000   0.000
 Approx polarizability: 198.885  12.766 186.820   4.618   0.282 167.505

 Normal termination of Gaussian 16 at Mon Mar 13 13:35:22 2023.
