 Gaussian 16, Revision A.03,
 Gaussian 16:  ES64L-G16RevA.03 25-Dec-2016

 ------------------------------------------------------------------
 # opt=(calcfc,tight) freq cam-b3lyp/gen nosymm pseudo=read scf=xqc
 ------------------------------------------------------------------

 -------------------
 TEAB_opt_freq_6_31G
 -------------------
 Symbolic Z-matrix:
 Charge =  0 Multiplicity = 1

 SCF Done:  E(RCAM-B3LYP) =  -2942.91980203     A.U. after   13 cycles
 Optimization completed.
    -- Stationary point found.
 Normal termination of Gaussian 16 at Thu Aug 22 12:42:54 2019.

 ----------------------------------------------------------------------
 #N Geom=AllCheck Guess=TCheck SCRF=Check GenChk RCAM-B3LYP/ChkBas Freq
 ----------------------------------------------------------------------

 Structure from the checkpoint file:  "TEAB_opt_freq_6_31G.chk"
 -------------------
 TEAB_opt_freq_6_31G
 -------------------
 Charge =  0 Multiplicity = 1

                          Input orientation:
 ---------------------------------------------------------------------
 Center     Atomic      Atomic             Coordinates (Angstroms)
 Number     Number       Type             X           Y           Z
 ---------------------------------------------------------------------
      1          7           0       -0.139242    0.602228    0.122294
      2          6           0       -1.065116    1.394134    1.049512
      3          6           0       -2.477644    1.662183    0.556455
      4          1           0       -0.544820    2.343911    1.245604
      5          1           0       -1.114764    0.807404    1.969460
      6          1           0       -2.942295    2.306322    1.306944
      7          1           0       -2.509020    2.205701   -0.385977
      8          1           0       -3.092413    0.762903    0.472820
      9          6           0       -0.914603   -0.513317   -0.530448
     10          6           0       -0.112242   -1.476945   -1.390229
     11          1           0       -1.691551   -0.044875   -1.130815
     12          1           0       -1.408203   -1.050234    0.283578
     13          1           0       -0.806113   -2.221933   -1.787075
     14          1           0        0.356064   -0.984697   -2.244001
     15          1           0        0.654261   -2.013871   -0.829500
     16          6           0        0.961738   -0.007500    0.979849
     17          6           0        1.594247    0.919771    2.008397
     18          1           0        1.715834   -0.368774    0.280636
     19          1           0        0.513879   -0.877868    1.467593
     20          1           0        2.535617    0.465069    2.327027
     21          1           0        1.795476    1.926797    1.628350
     22          1           0        0.966650    1.035013    2.892990
     23          6           0        0.543521    1.493568   -0.910293
     24          6           0       -0.359275    2.259094   -1.857087
     25          1           0        1.225148    0.835666   -1.450486
     26          1           0        1.106026    2.241524   -0.340129
     27          1           0        0.286466    2.682719   -2.630204
     28          1           0       -1.117078    1.651980   -2.359972
     29          1           0       -0.811596    3.105882   -1.339129
     30         35           0        0.809284    4.350930    0.923259
 ---------------------------------------------------------------------

 SCF Done:  E(RCAM-B3LYP) =  -2942.91980203     A.U. after    1 cycles

 Alpha  occ. eigenvalues -- -482.56539 -61.64735 -56.21510 -56.21472 -56.21467
 Alpha  occ. eigenvalues --  -14.54418 -10.34416 -10.33508 -10.31115 -10.30855
 Alpha  occ. eigenvalues --  -10.29776 -10.27189 -10.26055 -10.25818  -8.42813
 Alpha  occ. eigenvalues --   -6.43791  -6.43733  -6.43712  -2.56085  -2.56072
 Alpha  occ. eigenvalues --   -2.56055  -2.56008  -2.56007  -1.11149  -0.90171
 Alpha  occ. eigenvalues --   -0.88455  -0.87741  -0.83375  -0.76631  -0.74911
 Alpha  occ. eigenvalues --   -0.73564  -0.66898  -0.65684  -0.61232  -0.60931
 Alpha  occ. eigenvalues --   -0.58725  -0.56947  -0.54917  -0.52518  -0.51536
 Alpha  occ. eigenvalues --   -0.50280  -0.48647  -0.48102  -0.47301  -0.46994
 Alpha  occ. eigenvalues --   -0.46502  -0.45856  -0.44843  -0.43907  -0.43278
 Alpha  occ. eigenvalues --   -0.42090  -0.41792  -0.21634  -0.21521  -0.21436
 Alpha virt. eigenvalues --    0.08448   0.10950   0.11691   0.12779   0.13460
 Alpha virt. eigenvalues --    0.14652   0.15907   0.16699   0.17265   0.18111
 Alpha virt. eigenvalues --    0.18675   0.19260   0.19585   0.19955   0.20589

 Mulliken charges:
               1
     1  N   -0.376129
     2  C   -0.077524
     3  C   -0.340674
     4  H    0.205602
     5  H    0.117282
     6  H    0.148139
     7  H    0.135138
     8  H    0.100988
     9  C   -0.056550
    10  C   -0.346546
    11  H    0.149998
    12  H    0.134644
    13  H    0.135453
    14  H    0.138358
    15  H    0.129396
    16  C   -0.067745
    17  C   -0.343459
    18  H    0.135745
    19  H    0.123347
    20  H    0.114483
    21  H    0.193036
    22  H    0.124754
    23  C   -0.073208
    24  C   -0.342658
    25  H    0.108977
    26  H    0.193279
    27  H    0.135882
    28  H    0.088526
    29  H    0.175295
    30  Br  -0.763829
 Sum of Mulliken charges =  -0.00000

 Dipole moment (field-independent basis, Debye):
    X=             -3.2959    Y=            -12.4840    Z=             -2.8795  Tot=             13.2289
 Quadrupole moment (field-independent basis, Debye-Ang):
   XX=            -76.5558   YY=           -137.2727   ZZ=            -76.9355
   XY=            -13.2172   XZ=             -2.6165   YZ=            -13.3305

  Exact polarizability: 103.042   3.113 124.236   4.319   6.019 104.690
 Approx polarizability: 123.019   2.628 137.197   1.027   2.545 123.583

                      1                      2                      3
                      A                      A                      A
 Frequencies --     59.6414                80.8202                95.0530
 Red. masses --      3.7674                 2.7800                 2.9436
 Frc consts  --      0.0079                 0.0107                 0.0157
 IR Inten    --      3.4484                 2.1064                 2.7673

                      4                      5                      6
                      A                      A                      A
 Frequencies --    118.1090               147.9386               153.9510
 Red. masses --      5.1554                 2.0429                 1.6081
 Frc consts  --      0.0424                 0.0263                 0.0225
 IR Inten    --     18.0859                 3.7347                 1.1044

                      7                      8                      9
                      A                      A                      A
 Frequencies --    173.0391               219.7529               231.5154
 Red. masses --      1.9164                 1.5077                 1.2592
 Frc consts  --      0.0338                 0.0429                 0.0398
 IR Inten    --      5.7263                 1.7625                 2.4973

                     10                     11                     12
                      A                      A                      A
 Frequencies --    254.3331               257.9477               263.5501
 Red. masses --      1.6412                 1.8278                 1.6014
 Frc consts  --      0.0626                 0.0717                 0.0655
 IR Inten    --      0.4154                 0.2596                 0.5288

                     13                     14                     15
                      A                      A                      A
 Frequencies --    301.6806               333.9796               373.5203
 Red. masses --      1.3389                 1.9002                 2.8400
 Frc consts  --      0.0718                 0.1249                 0.2335
 IR Inten    --      0.3424                 0.9258                 0.2924

                     16                     17                     18
                      A                      A                      A
 Frequencies --    389.9489               400.1951               455.4543
 Red. masses --      2.5820                 2.2130                 2.2752
 Frc consts  --      0.2313                 0.2088                 0.2781
 IR Inten    --      1.7882                 6.4606                 0.9122

                     19                     20                     21
                      A                      A                      A
 Frequencies --    515.1783               549.4386               675.7565
 Red. masses --      2.6749                 2.8554                 2.7308
 Frc consts  --      0.4183                 0.5079                 0.7347
 IR Inten    --      2.8547                 1.6895                 1.0269

                     22                     23                     24
                      A                      A                      A
 Frequencies --    804.4229               815.8358               834.3062
 Red. masses --      1.2686                 1.3559                 1.1876
 Frc consts  --      0.4837                 0.5317                 0.4871
 IR Inten    --     18.0742                18.4058                19.3638

                     25                     26                     27
                      A                      A                      A
 Frequencies --    837.8636               906.3269               927.3673
 Red. masses --      1.1377                 1.6367                 1.8980
 Frc consts  --      0.4706                 0.7921                 0.9617
 IR Inten    --      6.1100                 1.8186                 3.2180

                     28                     29                     30
                      A                      A                      A
 Frequencies --    933.5982              1044.3242              1055.1538
 Red. masses --      1.8527                 1.8761                 2.3672
 Frc consts  --      0.9514                 1.2055                 1.5528
 IR Inten    --      2.2467                10.9260                13.8366

                     31                     32                     33
                      A                      A                      A
 Frequencies --   1059.2640              1081.4288              1101.7239
 Red. masses --      2.3246                 2.7698                 1.8035
 Frc consts  --      1.5368                 1.9085                 1.2898
 IR Inten    --     19.8217                16.4371                 3.5935

                     34                     35                     36
                      A                      A                      A
 Frequencies --   1112.6777              1130.1084              1174.0550
 Red. masses --      1.8447                 1.6815                 1.6971
 Frc consts  --      1.3456                 1.2653                 1.3783
 IR Inten    --      1.5726                 5.6391                 1.6012

                     37                     38                     39
                      A                      A                      A
 Frequencies --   1175.6543              1216.7440              1229.2030
 Red. masses --      1.9425                 2.2478                 1.9612
 Frc consts  --      1.5819                 1.9607                 1.7459
 IR Inten    --      5.0093                17.5926                 7.9423

                     40                     41                     42
                      A                      A                      A
 Frequencies --   1241.6692              1338.4202              1350.8776
 Red. masses --      1.8713                 1.1024                 1.1166
 Frc consts  --      1.6999                 1.1635                 1.2005
 IR Inten    --      6.9011                 5.1499                 3.8598

                     43                     44                     45
                      A                      A                      A
 Frequencies --   1390.1906              1404.2661              1422.2062
 Red. masses --      1.1344                 1.2184                 1.2641
 Frc consts  --      1.2917                 1.4155                 1.5065
 IR Inten    --      5.8955                 6.0042                 3.1971

                     46                     47                     48
                      A                      A                      A
 Frequencies --   1423.3411              1436.5566              1440.6313
 Red. masses --      1.1926                 1.2560                 1.2111
 Frc consts  --      1.4235                 1.5272                 1.4809
 IR Inten    --      8.4995                 6.7144                10.1132

                     49                     50                     51
                      A                      A                      A
 Frequencies --   1453.1705              1459.9416              1470.2422
 Red. masses --      1.3003                 1.2596                 1.2547
 Frc consts  --      1.6178                 1.5818                 1.5980
 IR Inten    --     25.7994                10.6050                 3.6114

                     52                     53                     54
                      A                      A                      A
 Frequencies --   1485.1980              1497.8306              1503.3072
 Red. masses --      1.1591                 1.0784                 1.0579
 Frc consts  --      1.5064                 1.4255                 1.4087
 IR Inten    --     17.2146                 1.1976                 6.3362

                     55                     56                     57
                      A                      A                      A
 Frequencies --   1506.5063              1514.6094              1521.3021
 Red. masses --      1.0784                 1.0451                 1.0483
 Frc consts  --      1.4420                 1.4126                 1.4294
 IR Inten    --      4.9550                 5.1578                10.9902

                     58                     59                     60
                      A                      A                      A
 Frequencies --   1521.7251              1523.9126              1526.2550
 Red. masses --      1.0584                 1.0518                 1.0675
 Frc consts  --      1.4441                 1.4391                 1.4652
 IR Inten    --     25.9339                 9.0217                15.3013

                     61                     62                     63
                      A                      A                      A
 Frequencies --   1532.5945              1536.4357              1541.1261
 Red. masses --      1.0677                 1.0658                 1.0651
 Frc consts  --      1.4776                 1.4824                 1.4905
 IR Inten    --     11.3134                 1.2181                19.8022

                     64                     65                     66
                      A                      A                      A
 Frequencies --   1547.1639              2986.3160              3050.5425
 Red. masses --      1.1049                 1.0800                 1.0670
 Frc consts  --      1.5582                 5.6748                 5.8500
 IR Inten    --     13.0751               226.3510               119.1286

                     67                     68                     69
                      A                      A                      A
 Frequencies --   3070.7473              3082.1981              3095.0858
 Red. masses --      1.0464                 1.0390                 1.0414
 Frc consts  --      5.8133                 5.8152                 5.8777
 IR Inten    --    132.2258                13.0732                12.4829

                     70                     71                     72
                      A                      A                      A
 Frequencies --   3096.6726              3100.1113              3115.4097
 Red. masses --      1.0399                 1.0634                 1.0690
 Frc consts  --      5.8751                 6.0213                 6.1132
 IR Inten    --      3.3615                28.4699                11.8643

                     73                     74                     75
                      A                      A                      A
 Frequencies --   3134.5754              3148.6990              3155.3507
 Red. masses --      1.0949                 1.0993                 1.1006
 Frc consts  --      6.3385                 6.4212                 6.4563
 IR Inten    --     15.1095                14.8277                18.2715

                     76                     77                     78
                      A                      A                      A
 Frequencies --   3156.1518              3160.2266              3161.8423
 Red. masses --      1.1033                 1.1023                 1.1024
 Frc consts  --      6.4752                 6.4863                 6.4934
 IR Inten    --     10.3505                 4.4187                 1.2315

                     79                     80                     81
                      A                      A                      A
 Frequencies --   3168.9075              3178.9264              3182.2023
 Red. masses --      1.1011                 1.1018                 1.1022
 Frc consts  --      6.5148                 6.5601                 6.5763
 IR Inten    --     10.2407                19.0545                10.5542

                     82                     83                     84
                      A                      A                      A
 Frequencies --   3184.0097              3201.1307              3208.4996
 Red. masses --      1.1036                 1.1004                 1.0989
 Frc consts  --      6.5918                 6.6437                 6.6654
 IR Inten    --      6.8424                11.5224                 5.3753

 - Thermochemistry -
 -------------------
 Temperature   298.150 Kelvin.  Pressure   1.00000 Atm.
 Atom     1 has atomic number  7 and mass  14.00307

 Molecular mass:   209.07791 amu.
 Principal axes and moments of inertia in atomic units:
                           1         2         3
     Eigenvalues --  1422.741183890.244144164.99979
           X            0.23825   0.69280  -0.68063
           Y            0.93032  -0.36399  -0.04484
           Z            0.27881   0.62253   0.73125
 This molecule is an asymmetric top.
 Rotational symmetry number  1.
 Warning -- assumption of classical behavior for rotation
           may cause significant error
 Rotational temperatures (Kelvin)      0.06088     0.02226     0.02080
 Rotational constants (GHZ):           1.26850     0.46391     0.43331
 Zero-point vibrational energy     739997.7 (Joules/Mol)
                                  176.86368 (Kcal/Mol)
 Warning -- explicit consideration of  20 degrees of freedom as
           vibrations may cause significant error
 Vibrational temperatures:     85.81   116.28   136.76   169.93   212.85
          (Kelvin)            221.50   248.96   316.18   333.10   365.93
                              371.13   379.19   434.05   480.52   537.41
                              561.05   575.79   655.30   741.23   790.52
                              972.26  1157.39  1173.81  1200.38  1205.50
                             1304.00  1334.27  1343.24  1502.55  1518.13
                             1524.04  1555.93  1585.13  1600.90  1625.97
                             1689.20  1691.50  1750.62  1768.55  1786.49
                             1925.69  1943.61  2000.17  2020.43  2046.24
                             2047.87  2066.88  2072.75  2090.79  2100.53
                             2115.35  2136.87  2155.04  2162.92  2167.53
                             2179.19  2188.81  2189.42  2192.57  2195.94
                             2205.06  2210.59  2217.34  2226.02  4296.64
                             4389.05  4418.12  4434.60  4453.14  4455.42
                             4460.37  4482.38  4509.95  4530.28  4539.85
                             4541.00  4546.86  4549.19  4559.35  4573.77
                             4578.48  4581.08  4605.71  4616.32

 Zero-point correction=                           0.281850 (Hartree/Particle)
 Thermal correction to Energy=                    0.295459
 Thermal correction to Enthalpy=                  0.296403
 Thermal correction to Gibbs Free Energy=         0.241707
 Sum of electronic and zero-point Energies=          -2942.637952
 Sum of electronic and thermal Energies=             -2942.624343
 Sum of electronic and thermal Enthalpies=           -2942.623399
 Sum of electronic and thermal Free Energies=        -2942.678095

                     E (Thermal)             CV                S
                      KCal/Mol        Cal/Mol-Kelvin    Cal/Mol-Kelvin
 Total                  185.403             49.617            115.117
 Electronic               0.000              0.000              0.000
 Translational            0.889              2.981             41.916
 Rotational               0.889              2.981             31.511
 Vibrational            183.626             43.655             41.690
 Vibration     1          0.597              1.974              4.469
 Vibration     2          0.600              1.962              3.871
 Vibration     3          0.603              1.953              3.553
 Vibration     4          0.608              1.934              3.131
 Vibration     5          0.617              1.905              2.699
 Vibration     6          0.619              1.898              2.623
 Vibration     7          0.627              1.876              2.402
 Vibration     8          0.647              1.811              1.961
 Vibration     9          0.653              1.793              1.867
 Vibration    10          0.665              1.755              1.700
 Vibration    11          0.667              1.749              1.676
 Vibration    12          0.670              1.740              1.638
 Vibration    13          0.694              1.671              1.408
 Vibration    14          0.716              1.608              1.241
 Vibration    15          0.745              1.526              1.065
 Vibration    16          0.758              1.492              1.000
 Vibration    17          0.766              1.470              0.962
 Vibration    18          0.814              1.349              0.779
 Vibration    19          0.870              1.216              0.621
 Vibration    20          0.905              1.141              0.545

 Optimization completed.
    -- Stationary point found.
 Normal termination of Gaussian 16 at Thu Aug 22 12:46:20 2019.
